    1    1    1    1
  0.1181041E+02  0.2556191E-09  0.2556191E-09  0.2556191E-09  0.5000000E-15
  1.000000000000000E-004
  CAR 
 Cu SCF                                  
     11    120     16
 
  0.0000000E+00  0.0000000E+00  0.0000000E+00  0.2962963E-03
    1       -1.766258   1.000000
    2        4.546685   1.000000
    3        4.546688   1.000000
    4        4.546688   1.000000
    5        5.373410   1.000000
    6        5.373410   1.000000
    7       30.179605   0.000000
    8       32.823130   0.000000
    9       32.823174   0.000000
   10       32.823174   0.000000
   11       35.311753   0.000000
   12       35.311788   0.000000
   13       35.311788   0.000000
   14       39.082776   0.000000
   15       43.855143   0.000000
   16       43.855196   0.000000
 
  0.6666667E-01  0.0000000E+00  0.0000000E+00  0.2370370E-02
    1       -1.604411   1.000000
    2        4.512640   1.000000
    3        4.577045   1.000000
    4        4.577047   1.000000
    5        5.361557   1.000000
    6        5.361558   1.000000
    7       29.159079   0.000000
    8       31.248806   0.000000
    9       32.329432   0.000000
   10       32.329468   0.000000
   11       36.033293   0.000000
   12       36.033320   0.000000
   13       36.877447   0.000000
   14       40.071987   0.000000
   15       42.244756   0.000000
   16       42.244806   0.000000
 
  0.1333333E+00  0.0000000E+00  0.0000000E+00  0.2370370E-02
    1       -1.126855   1.000000
    2        4.424519   1.000000
    3        4.649833   1.000000
    4        4.649833   1.000000
    5        5.343201   1.000000
    6        5.343205   1.000000
    7       25.960016   0.000000
    8       30.768637   0.000000
    9       31.520816   0.000000
   10       31.520844   0.000000
   11       37.189049   0.000000
   12       37.373110   0.000000
   13       37.373111   0.000000
   14       40.229110   0.000000
   15       40.229188   0.000000
   16       43.149515   0.000000
 
  0.2000000E+00  0.0000000E+00  0.0000000E+00  0.2370370E-02
    1       -0.363049   1.000000
    2        4.326112   1.000000
    3        4.707323   1.000000
    4        4.707325   1.000000
    5        5.371588   1.000000
    6        5.371598   1.000000
    7       22.516055   0.000000
    8       30.419350   0.000000
    9       30.817266   0.000000
   10       30.817282   0.000000
   11       37.145603   0.000000
   12       37.246991   0.000000
   13       37.246995   0.000000
   14       40.263251   0.000000
   15       40.263340   0.000000
   16       45.264446   0.000000
 
  0.2666667E+00  0.0000000E+00  0.0000000E+00  0.2370370E-02
    1        0.611203   1.000000
    2        4.305214   1.000000
    3        4.693711   1.000000
    4        4.693716   1.000000
    5        5.492703   1.000000
    6        5.492717   1.000000
    7       19.226627   0.000000
    8       29.924833   0.000000
    9       30.288019   0.000000
   10       30.288020   0.000000
   11       35.685630   0.000000
   12       35.685663   0.000000
   13       37.284385   0.000000
   14       42.323771   0.000000
   15       42.323835   0.000000
   16       46.866191   0.000000
 
  0.3333333E+00  0.0000000E+00  0.0000000E+00  0.2370370E-02
    1        1.598135   1.000000
    2        4.550272   1.000000
    3        4.629312   1.000000
    4        4.629317   1.000000
    5        5.669265   1.000000
    6        5.669281   1.000000
    7       16.191751   0.000000
    8       29.386158   0.000000
    9       29.935339   0.000000
   10       29.935363   0.000000
   11       34.288599   0.000000
   12       34.288658   0.000000
   13       37.551316   0.000000
   14       44.827279   0.000000
   15       44.827329   0.000000
   16       48.715749   0.000000
 
  0.4000000E+00  0.0000000E+00  0.0000000E+00  0.2370370E-02
    1        2.247125   1.000000
    2        4.562027   1.000000
    3        4.562031   1.000000
    4        5.333262   1.000000
    5        5.830887   1.000000
    6        5.830906   1.000000
    7       13.535716   0.000000
    8       28.946451   0.000000
    9       29.739719   0.000000
   10       29.739770   0.000000
   11       33.271456   0.000000
   12       33.271543   0.000000
   13       37.804169   0.000000
   14       47.552315   0.000000
   15       47.552352   0.000000
   16       50.800306   0.000000
 
  0.4666667E+00  0.0000000E+00  0.0000000E+00  0.2370370E-02
    1        2.479209   1.000000
    2        4.521782   1.000000
    3        4.521786   1.000000
    4        5.925404   1.000000
    5        5.925423   1.000000
    6        6.373660   1.000000
    7       11.644833  -0.000000
    8       28.703800   0.000000
    9       29.662804   0.000000
   10       29.662875   0.000000
   11       32.729426   0.000000
   12       32.729533   0.000000
   13       37.949564   0.000000
   14       50.148376   0.000000
   15       50.148386   0.000000
   16       52.593206   0.000000
 
  0.6666667E-01  0.6666667E-01  0.0000000E+00  0.1777778E-02
    1       -1.550602   1.000000
    2        4.483147   1.000000
    3        4.597670   1.000000
    4        4.597672   1.000000
    5        5.316104   1.000000
    6        5.396621   1.000000
    7       29.500889   0.000000
    8       31.026642   0.000000
    9       31.026668   0.000000
   10       31.983717   0.000000
   11       36.449362   0.000000
   12       37.207752   0.000000
   13       37.207781   0.000000
   14       39.019613   0.000000
   15       41.521200   0.000000
   16       44.265064   0.000000
 
  0.1333333E+00  0.6666667E-01  0.0000000E+00  0.7111111E-02
    1       -1.178578   1.000000
    2        4.401087   1.000000
    3        4.664871   1.000000
    4        4.667989   1.000000
    5        5.258389   1.000000
    6        5.414810   1.000000
    7       27.198002   0.000000
    8       29.901725   0.000000
    9       29.977343   0.000000
   10       32.596918   0.000000
   11       35.989526   0.000000
   12       37.616363   0.000000
   13       38.579035   0.000000
   14       39.214416   0.000000
   15       42.786778   0.000000
   16       43.001174   0.000000
 
  0.2000000E+00  0.6666667E-01  0.0000000E+00  0.7111111E-02
    1       -0.509548   1.000000
    2        4.296343   1.000000
    3        4.728541   1.000000
    4        4.739653   1.000000
    5        5.245947   1.000000
    6        5.453897   1.000000
    7       23.764455   0.000000
    8       29.014731   0.000000
    9       29.480474   0.000000
   10       33.702059   0.000000
   11       34.245074   0.000000
   12       37.501487   0.000000
   13       39.231069   0.000000
   14       39.538870   0.000000
   15       42.177590   0.000000
   16       45.333148   0.000000
 
  0.2666667E+00  0.6666667E-01  0.0000000E+00  0.7111111E-02
    1        0.400594   1.000000
    2        4.226586   1.000000
    3        4.706727   1.000000
    4        4.754185   1.000000
    5        5.371468   1.000000
    6        5.558173   1.000000
    7       20.411214   0.000000
    8       28.383972   0.000000
    9       29.022605   0.000000
   10       32.435618   0.000000
   11       34.383984   0.000000
   12       37.689174   0.000000
   13       38.079848   0.000000
   14       40.298976   0.000000
   15       43.646436   0.000000
   16       47.069724   0.000000
 
  0.3333333E+00  0.6666667E-01  0.0000000E+00  0.7111111E-02
    1        1.406363   1.000000
    2        4.314695   1.000000
    3        4.619721   1.000000
    4        4.707510   1.000000
    5        5.628443   1.000000
    6        5.713136   1.000000
    7       17.278944   0.000000
    8       28.025442   0.000000
    9       28.597900   0.000000
   10       30.851105   0.000000
   11       34.435417   0.000000
   12       36.634499   0.000000
   13       38.150570   0.000000
   14       41.880515   0.000000
   15       45.937872   0.000000
   16       48.975681   0.000000
 
  0.4000000E+00  0.6666667E-01  0.0000000E+00  0.7111111E-02
    1        2.187153   1.000000
    2        4.526999   1.000000
    3        4.639716   1.000000
    4        4.753804   1.000000
    5        5.857207   1.000000
    6        6.023715   1.000000
    7       14.464759   0.000000
    8       27.961094   0.000000
    9       28.181437   0.000000
   10       29.637338   0.000000
   11       34.293448   0.000000
   12       35.383713   0.000000
   13       38.564826   0.000000
   14       44.176162   0.000000
   15       48.508315   0.000000
   16       51.069955   0.000000
 
  0.4666667E+00  0.6666667E-01  0.0000000E+00  0.7111111E-02
    1        2.525147   1.000000
    2        4.472402   1.000000
    3        4.585783   1.000000
    4        5.297298   1.000000
    5        5.936282   1.000000
    6        6.747680   1.000000
    7       12.205032  -0.000000
    8       27.653906   0.000000
    9       28.215916   0.000000
   10       29.007045   0.000000
   11       34.260858   0.000000
   12       34.402656   0.000000
   13       38.830132   0.000000
   14       46.934554   0.000000
   15       50.793172   0.000000
   16       52.567605   0.000000
 
 -0.4666667E+00  0.6666667E-01  0.0000000E+00  0.7111111E-02
    1        2.586901   1.000000
    2        4.462933   1.000000
    3        4.565915   1.000000
    4        5.463237   1.000000
    5        5.920936   1.000000
    6        7.189238   1.001022
    7       11.411159  -0.000000
    8       27.081504   0.000000
    9       28.807683   0.000000
   10       28.965173   0.000000
   11       33.706153   0.000000
   12       34.416942   0.000000
   13       38.970483   0.000000
   14       49.792014   0.000000
   15       49.824439   0.000000
   16       51.398249   0.000000
 
 -0.4000000E+00  0.6666667E-01  0.0000000E+00  0.7111111E-02
    1        2.455406   1.000000
    2        4.500489   1.000000
    3        4.587668   1.000000
    4        5.195061   1.000000
    5        5.809671   1.000000
    6        6.524509   1.000000
    7       12.867194  -0.000000
    8       26.694830   0.000000
    9       29.314628   0.000000
   10       29.731408   0.000000
   11       33.299918   0.000000
   12       34.730436   0.000000
   13       39.043506   0.000000
   14       46.910657   0.000000
   15       48.641692   0.000000
   16       52.183100   0.000000
 
 -0.3333333E+00  0.6666667E-01  0.0000000E+00  0.7111111E-02
    1        1.977230   1.000000
    2        4.569874   1.000000
    3        4.592940   1.000000
    4        4.646336   1.000000
    5        5.627316   1.000000
    6        6.024090   1.000000
    7       15.361536   0.000000
    8       26.573119   0.000000
    9       29.957149   0.000000
   10       30.926166   0.000000
   11       33.221486   0.000000
   12       35.077596   0.000000
   13       39.167705   0.000000
   14       44.024204   0.000000
   15       46.179116   0.000000
   16       50.994512   0.000000
 
 -0.2666667E+00  0.6666667E-01  0.0000000E+00  0.7111111E-02
    1        1.077736   1.000000
    2        4.271950   1.000000
    3        4.657129   1.000000
    4        4.721022   1.000000
    5        5.421813   1.000000
    6        5.750395   1.000000
    7       18.295971   0.000000
    8       26.718322   0.000000
    9       30.799976   0.000000
   10       32.121865   0.000000
   11       33.697865   0.000000
   12       35.264746   0.000000
   13       39.544638   0.000000
   14       41.341565   0.000000
   15       44.075501   0.000000
   16       48.872152   0.000000
 
 -0.2000000E+00  0.6666667E-01  0.0000000E+00  0.7111111E-02
    1        0.076804   1.000000
    2        4.254739   1.000000
    3        4.712174   1.000000
    4        4.760723   1.000000
    5        5.269694   1.000000
    6        5.551830   1.000000
    7       21.510501   0.000000
    8       27.113738   0.000000
    9       31.639415   0.000000
   10       32.858856   0.000000
   11       35.109412   0.000000
   12       35.270234   0.000000
   13       38.952390   0.000000
   14       40.290145   0.000000
   15       42.386669   0.000000
   16       46.920260   0.000000
 
 -0.1333333E+00  0.6666667E-01  0.0000000E+00  0.7111111E-02
    1       -0.763294   1.000000
    2        4.347101   1.000000
    3        4.700638   1.000000
    4        4.708228   1.000000
    5        5.246313   1.000000
    6        5.435493   1.000000
    7       24.906610   0.000000
    8       27.756617   0.000000
    9       32.070797   0.000000
   10       33.378664   0.000000
   11       35.487447   0.000000
   12       36.398308   0.000000
   13       37.659905   0.000000
   14       40.914038   0.000000
   15       41.244424   0.000000
   16       45.004146   0.000000
 
 -0.6666667E-01  0.6666667E-01  0.0000000E+00  0.3555556E-02
    1       -1.337289   1.000000
    2        4.450423   1.000000
    3        4.621218   1.000000
    4        4.634916   1.000000
    5        5.302522   1.000000
    6        5.389945   1.000000
    7       27.970790   0.000000
    8       29.020246   0.000000
    9       31.933024   0.000000
   10       33.431898   0.000000
   11       35.530908   0.000000
   12       36.087411   0.000000
   13       39.263751   0.000000
   14       39.724392   0.000000
   15       40.913809   0.000000
   16       43.167189   0.000000
 
  0.1333333E+00  0.1333333E+00  0.0000000E+00  0.1777778E-02
    1       -0.916353   1.000000
    2        4.305247   1.000000
    3        4.747417   1.000000
    4        4.747419   1.000000
    5        5.162270   1.000000
    6        5.462502   1.000000
    7       28.295296   0.000000
    8       28.550699   0.000000
    9       28.550722   0.000000
   10       30.345903   0.000000
   11       35.153853   0.000000
   12       39.016960   0.000000
   13       39.947825   0.000000
   14       39.947863   0.000000
   15       43.441872   0.000000
   16       45.531012   0.000000
 
  0.2000000E+00  0.1333333E+00  0.0000000E+00  0.7111111E-02
    1       -0.355659   1.000000
    2        4.186040   1.000000
    3        4.817332   1.000000
    4        4.844459   1.000000
    5        5.123202   1.000000
    6        5.512326   1.000000
    7       25.211984   0.000000
    8       27.481097   0.000000
    9       28.533148   0.000000
   10       30.670023   0.000000
   11       33.380082   0.000000
   12       39.104440   0.000000
   13       41.041296   0.000000
   14       41.512077   0.000000
   15       44.640481   0.000000
   16       45.751643   0.000000
 
  0.2666667E+00  0.1333333E+00  0.0000000E+00  0.7111111E-02
    1        0.459979   1.000000
    2        4.079170   1.000000
    3        4.734318   1.000000
    4        4.895401   1.000000
    5        5.310683   1.000000
    6        5.607135   1.000000
    7       21.830727   0.000000
    8       26.706880   0.000000
    9       28.047137   0.000000
   10       30.189196   0.000000
   11       33.910709   0.000000
   12       38.528651   0.000000
   13       40.579859   0.000000
   14       42.051454   0.000000
   15       45.275571   0.000000
   16       47.978734   0.000000
 
  0.3333333E+00  0.1333333E+00  0.0000000E+00  0.7111111E-02
    1        1.421527   1.000000
    2        4.049281   1.000000
    3        4.592836   1.000000
    4        4.874645   1.000000
    5        5.681929   1.000000
    6        5.749047   1.000000
    7       18.619107   0.000000
    8       26.246706   0.000000
    9       27.335149   0.000000
   10       28.988490   0.000000
   11       36.044630   0.000000
   12       37.913355   0.000000
   13       39.235977   0.000000
   14       42.256481   0.000000
   15       47.302090   0.000000
   16       50.021737   0.000000
 
  0.4000000E+00  0.1333333E+00  0.0000000E+00  0.7111111E-02
    1        2.269606   1.000000
    2        4.193248   1.000000
    3        4.495076   1.000000
    4        4.813921   1.000000
    5        5.882615   1.000000
    6        6.269739   1.000000
    7       15.670101   0.000000
    8       26.123917   0.000000
    9       26.274948   0.000000
   10       28.366054   0.000000
   11       37.364622   0.000000
   12       37.931055   0.000000
   13       38.519296   0.000000
   14       42.562610   0.000000
   15       49.747282   0.000000
   16       52.158710   0.000000
 
  0.4666667E+00  0.1333333E+00  0.0000000E+00  0.7111111E-02
    1        2.706721   1.000000
    2        4.297819   1.000000
    3        4.687099   1.000000
    4        4.751389   1.000000
    5        5.951334   1.000000
    6        7.219042   1.001956
    7       13.120110  -0.000000
    8       25.173025   0.000000
    9       26.361530   0.000000
   10       28.210459   0.000000
   11       36.843089   0.000000
   12       36.976237   0.000000
   13       40.597722   0.000000
   14       43.586103   0.000000
   15       51.709639   0.000000
   16       53.242914   0.000000
 
 -0.4666667E+00  0.1333333E+00  0.0000000E+00  0.7111111E-02
    1        2.826649   1.000000
    2        4.292909   1.000000
    3        4.712586   1.000000
    4        4.919473   1.000000
    5        5.924246   1.000000
    6        8.175926  -0.001747
    7       11.541026  -0.000000
    8       24.275632   0.000000
    9       26.973605   0.000000
   10       28.365742   0.000000
   11       36.008681   0.000000
   12       36.693583   0.000000
   13       41.542809   0.000000
   14       46.068937   0.000000
   15       49.717922   0.000000
   16       51.308743   0.000000
 
 -0.4000000E+00  0.1333333E+00  0.0000000E+00  0.7111111E-02
    1        2.780857   1.000000
    2        4.335442   1.000000
    3        4.711458   1.000000
    4        4.841021   1.000000
    5        5.799133   1.000000
    6        7.661612   0.638346
    7       12.434687  -0.000000
    8       23.662078   0.000000
    9       27.958007   0.000000
   10       28.816389   0.000000
   11       35.433444   0.000000
   12       36.441560   0.000000
   13       41.987336   0.000000
   14       46.597658   0.000000
   15       48.592580   0.000000
   16       49.338163   0.000000
 
 -0.3333333E+00  0.1333333E+00  0.0000000E+00  0.7111111E-02
    1        2.485500   1.000000
    2        4.427255   1.000000
    3        4.465078   1.000000
    4        4.751766   1.000000
    5        5.598739   1.000000
    6        6.740798   1.000000
    7       14.783088   0.000000
    8       23.355644   0.000000
    9       29.294976   0.000000
   10       29.575475   0.000000
   11       35.114286   0.000000
   12       36.080382   0.000000
   13       42.319719   0.000000
   14       43.559545   0.000000
   15       46.335480   0.000000
   16       52.561576   0.000000
 
 -0.2666667E+00  0.1333333E+00  0.0000000E+00  0.7111111E-02
    1        1.751141   1.000000
    2        4.172427   1.000000
    3        4.547647   1.000000
    4        4.825654   1.000000
    5        5.363710   1.000000
    6        6.187150   1.000000
    7       17.621595   0.000000
    8       23.355287   0.000000
    9       30.649023   0.000000
   10       30.951208   0.000000
   11       35.045876   0.000000
   12       35.447178   0.000000
   13       40.716128   0.000000
   14       42.399586   0.000000
   15       44.981012   0.000000
   16       52.681117   0.000000
 
 -0.2000000E+00  0.1333333E+00  0.0000000E+00  0.7111111E-02
    1        0.778247   1.000000
    2        4.141008   1.000000
    3        4.658263   1.000000
    4        4.895465   1.000000
    5        5.161922   1.000000
    6        5.835066   1.000000
    7       20.747555   0.000000
    8       23.655452   0.000000
    9       32.022410   0.000000
   10       32.880968   0.000000
   11       34.476702   0.000000
   12       35.215753   0.000000
   13       38.119790   0.000000
   14       42.020655   0.000000
   15       44.678519   0.000000
   16       50.048924   0.000000
 
 -0.1333333E+00  0.1333333E+00  0.0000000E+00  0.3555556E-02
    1       -0.109249   1.000000
    2        4.231580   1.000000
    3        4.717734   1.000000
    4        4.828437   1.000000
    5        5.147356   1.000000
    6        5.588290   1.000000
    7       23.807231   0.000000
    8       24.518552   0.000000
    9       33.225574   0.000000
   10       33.721638   0.000000
   11       34.858346   0.000000
   12       35.388967   0.000000
   13       36.215373   0.000000
   14       41.608940   0.000000
   15       43.879632   0.000000
   16       47.284391   0.000000
 
  0.2000000E+00  0.2000000E+00  0.0000000E+00  0.1777778E-02
    1        0.086097   1.000000
    2        4.047730   1.000000
    3        4.978384   1.000000
    4        4.984707   1.000000
    5        4.984708   1.000000
    6        5.560298   1.000000
    7       26.236319   0.000000
    8       26.236342   0.000000
    9       27.203499   0.000000
   10       28.276677   0.000000
   11       31.378695   0.000000
   12       42.333226   0.000000
   13       42.643561   0.000000
   14       42.643608   0.000000
   15       46.309991   0.000000
   16       47.137592   0.000000
 
  0.2666667E+00  0.2000000E+00  0.0000000E+00  0.7111111E-02
    1        0.776471   1.000000
    2        3.914676   1.000000
    3        4.814561   1.000000
    4        5.091610   1.000000
    5        5.261888   1.000000
    6        5.638165   1.000000
    7       23.392345   0.000000
    8       25.302957   0.000000
    9       26.840836   0.000000
   10       27.903893   0.000000
   11       30.983438   0.000000
   12       42.165769   0.000000
   13       43.112419   0.000000
   14       44.399444   0.000000
   15       47.007648   0.000000
   16       48.860610   0.000000
 
  0.3333333E+00  0.2000000E+00  0.0000000E+00  0.7111111E-02
    1        1.623537   1.000000
    2        3.824268   1.000000
    3        4.645187   1.000000
    4        5.110389   1.000000
    5        5.709949   1.000000
    6        5.769675   1.000000
    7       20.180294   0.000000
    8       24.707292   0.000000
    9       25.374822   0.000000
   10       27.749443   0.000000
   11       32.714270   0.000000
   12       41.431366   0.000000
   13       42.023121   0.000000
   14       44.927987   0.000000
   15       48.737931   0.000000
   16       51.338091   0.000000
 
  0.4000000E+00  0.2000000E+00  0.0000000E+00  0.7111111E-02
    1        2.430278   1.000000
    2        3.826783   1.000000
    3        4.510913   1.000000
    4        5.064926   1.000000
    5        5.901366   1.000000
    6        6.432108   1.000000
    7       17.145984   0.000000
    8       23.881484   0.000000
    9       24.476967   0.000000
   10       27.568671   0.000000
   11       35.234521   0.000000
   12       40.699498   0.000000
   13       40.717314   0.000000
   14       45.083430   0.000000
   15       51.160378   0.000000
   16       53.603716   0.000000
 
  0.4666667E+00  0.2000000E+00  0.0000000E+00  0.7111111E-02
    1        2.930162   1.000000
    2        3.930139   1.000000
    3        4.486322   1.000000
    4        4.999656   1.000000
    5        5.967851   1.000000
    6        7.560901   0.948787
    7       14.402254   0.000000
    8       22.575876   0.000000
    9       24.634176   0.000000
   10       27.543808   0.000000
   11       37.982766   0.000000
   12       39.538840   0.000000
   13       40.247081   0.000000
   14       45.225564   0.000000
   15       52.806534   0.000000
   16       54.167494   0.000000
 
 -0.4666667E+00  0.2000000E+00  0.0000000E+00  0.7111111E-02
    1        3.118617   1.000000
    2        4.006265   1.000000
    3        4.573982   1.000000
    4        4.944061   1.000000
    5        5.935779   1.000000
    6        8.981675  -0.000000
    7       12.200792  -0.000000
    8       21.527642   0.000000
    9       25.186687   0.000000
   10       27.716895   0.000000
   11       38.617708   0.000000
   12       39.059493   0.000000
   13       41.813091   0.000000
   14       45.451683   0.000000
   15       49.914909   0.000000
   16       51.553221   0.000000
 
 -0.4000000E+00  0.2000000E+00  0.0000000E+00  0.7111111E-02
    1        3.153885   1.000000
    2        4.076081   1.000000
    3        4.555308   1.000000
    4        4.915955   1.000000
    5        5.804014   1.000000
    6        9.041092  -0.000000
    7       12.214151  -0.000000
    8       20.772162   0.000000
    9       26.122014   0.000000
   10       28.124331   0.000000
   11       37.956142   0.000000
   12       38.602699   0.000000
   13       45.113566   0.000000
   14       45.702486   0.000000
   15       46.632628   0.000000
   16       48.852065   0.000000
 
 -0.3333333E+00  0.2000000E+00  0.0000000E+00  0.7111111E-02
    1        3.024231   1.000000
    2        4.196008   1.000000
    3        4.322936   1.000000
    4        4.924418   1.000000
    5        5.596448   1.000000
    6        7.772894   0.195861
    7       14.437623   0.000000
    8       20.331882   0.000000
    9       27.408644   0.000000
   10       28.797197   0.000000
   11       37.560649   0.000000
   12       37.884498   0.000000
   13       43.483734   0.000000
   14       45.095929   0.000000
   15       47.351401   0.000000
   16       49.013489   0.000000
 
 -0.2666667E+00  0.2000000E+00  0.0000000E+00  0.7111111E-02
    1        2.520494   1.000000
    2        4.079487   1.000000
    3        4.365370   1.000000
    4        4.970275   1.000000
    5        5.351697   1.000000
    6        6.835035   1.000000
    7       17.176744   0.000000
    8       20.224722   0.000000
    9       29.002163   0.000000
   10       29.749364   0.000000
   11       36.839179   0.000000
   12       37.433489   0.000000
   13       40.528750   0.000000
   14       43.700527   0.000000
   15       47.713201   0.000000
   16       52.403861   0.000000
 
 -0.2000000E+00  0.2000000E+00  0.0000000E+00  0.3555556E-02
    1        1.659767   1.000000
    2        4.052334   1.000000
    3        4.531466   1.000000
    4        5.035191   1.000000
    5        5.123707   1.000000
    6        6.242129   1.000000
    7       19.916034   0.000000
    8       20.724195   0.000000
    9       30.850108   0.000000
   10       30.942688   0.000000
   11       35.515387   0.000000
   12       37.438544   0.000000
   13       37.937225   0.000000
   14       42.716463   0.000000
   15       47.442928   0.000000
   16       50.223460   0.000000
 
  0.2666667E+00  0.2666667E+00  0.0000000E+00  0.1777778E-02
    1        1.304345   1.000000
    2        3.758493   1.000000
    3        4.940067   1.000000
    4        5.285656   1.000000
    5        5.285657   1.000000
    6        5.673619   1.000000
    7       24.208188   0.000000
    8       24.208210   0.000000
    9       24.999133   0.000000
   10       26.353670   0.000000
   11       29.353104   0.000000
   12       45.270339   0.000000
   13       45.270391   0.000000
   14       46.211720   0.000000
   15       47.699752   0.000000
   16       49.025576   0.000000
 
  0.3333333E+00  0.2666667E+00  0.0000000E+00  0.7111111E-02
    1        1.947670   1.000000
    2        3.636614   1.000000
    3        4.913532   1.000000
    4        5.378337   1.000000
    5        5.677557   1.000000
    6        5.773095   1.000000
    7       21.807370   0.000000
    8       23.238653   0.000000
    9       23.460107   0.000000
   10       26.772784   0.000000
   11       29.761775   0.000000
   12       44.988859   0.000000
   13       45.096132   0.000000
   14       47.935852   0.000000
   15       49.342414   0.000000
   16       51.710069   0.000000
 
  0.4000000E+00  0.2666667E+00  0.0000000E+00  0.7111111E-02
    1        2.555532   1.000000
    2        3.578694   1.000000
    3        4.799702   1.000000
    4        5.359146   1.000000
    5        5.908593   1.000000
    6        6.507226   1.000000
    7       18.841552   0.000000
    8       21.585884   0.000000
    9       23.095550   0.000000
   10       26.937405   0.000000
   11       31.801120   0.000000
   12       43.653937   0.000000
   13       44.192558   0.000000
   14       48.534769   0.000000
   15       52.128249   0.000000
   16       55.026829   0.000000
 
  0.4666667E+00  0.2666667E+00  0.0000000E+00  0.7111111E-02
    1        2.993131   1.000000
    2        3.602967   1.000000
    3        4.687804   1.000000
    4        5.297519   1.000000
    5        5.983122   1.000000
    6        7.787041   0.151977
    7       16.015906   0.000000
    8       20.170712   0.000000
    9       23.141782   0.000000
   10       26.991581   0.000000
   11       34.530284   0.000000
   12       42.407046   0.000000
   13       43.275262   0.000000
   14       48.881885   0.000000
   15       53.638949   0.000000
   16       55.063550   0.000000
 
 -0.4666667E+00  0.2666667E+00  0.0000000E+00  0.7111111E-02
    1        3.254158   1.000000
    2        3.682883   1.000000
    3        4.592677   1.000000
    4        5.229036   1.000000
    5        5.955262   1.000000
    6        9.457572  -0.000000
    7       13.496617   0.000000
    8       19.025764   0.000000
    9       23.605816   0.000000
   10       27.152222   0.000000
   11       37.602867   0.000000
   12       41.377480   0.000000
   13       42.426571   0.000000
   14       49.216323   0.000000
   15       50.385433   0.000000
   16       52.019501   0.000000
 
 -0.4000000E+00  0.2666667E+00  0.0000000E+00  0.7111111E-02
    1        3.411873   1.000000
    2        3.780281   1.000000
    3        4.469449   1.000000
    4        5.170255   1.000000
    5        5.828322   1.000000
    6       10.606138  -0.000000
    7       12.202749  -0.000000
    8       18.178283   0.000000
    9       24.469077   0.000000
   10       27.486600   0.000000
   11       40.543650   0.000000
   12       40.582821   0.000000
   13       41.934178   0.000000
   14       47.071231   0.000000
   15       48.509993   0.000000
   16       50.298141   0.000000
 
 -0.3333333E+00  0.2666667E+00  0.0000000E+00  0.7111111E-02
    1        3.440630   1.000000
    2        3.931889   1.000000
    3        4.261182   1.000000
    4        5.125733   1.000000
    5        5.637097   1.000000