    2    2    1    1
  0.1049331E+03  0.4533000E-09  0.4532263E-09  0.1179600E-08  0.5000000E-15
  1.000000000000000E-004
  CAR 
 Cu SCF                                  
     10    200     16
 
  0.0000000E+00  0.5000000E+00 -0.5000000E+00  0.5000000E-02
    1      -11.409206   1.000000
    2      -11.408264   1.000000
    3       -2.793334   1.000000
    4       -2.789378   1.000000
    5       -1.267835   0.303089
    6       -1.247725   0.229361
    7       -0.683811  -0.000037
    8       -0.681564  -0.000035
    9        3.233842  -0.000000
   10        3.243301  -0.000000
   11        4.070698  -0.000000
   12        4.074162  -0.000000
   13        5.638817   0.000000
   14        5.679216   0.000000
   15        6.450246   0.000000
   16        6.466898   0.000000
 
  0.0000000E+00  0.4871795E+00 -0.4871795E+00  0.5000000E-02
    1      -11.409835   1.000000
    2      -11.408812   1.000000
    3       -2.790328   1.000000
    4       -2.786340   1.000000
    5       -1.271074   0.315610
    6       -1.247618   0.228990
    7       -0.682870  -0.000036
    8       -0.680622  -0.000034
    9        3.231972  -0.000000
   10        3.248707  -0.000000
   11        4.070745  -0.000000
   12        4.078183  -0.000000
   13        5.620902   0.000000
   14        5.683098   0.000000
   15        6.426827   0.000000
   16        6.510653   0.000000
 
  0.0000000E+00  0.4743590E+00 -0.4743590E+00  0.5000000E-02
    1      -11.411705   1.000000
    2      -11.410468   1.000000
    3       -2.781323   1.000000
    4       -2.777236   1.000000
    5       -1.279817   0.350151
    6       -1.248225   0.231104
    7       -0.680053  -0.000033
    8       -0.677800  -0.000031
    9        3.230939  -0.000000
   10        3.260205  -0.000000
   11        4.073698  -0.000000
   12        4.087423  -0.000000
   13        5.575065   0.000000
   14        5.690345   0.000000
   15        6.414502   0.000000
   16        6.580467   0.000000
 
  0.0000000E+00  0.4615385E+00 -0.4615385E+00  0.5000000E-02
    1      -11.414772   1.000000
    2      -11.413243   1.000000
    3       -2.766341   1.000000
    4       -2.762092   1.000000
    5       -1.292829   0.403208
    6       -1.250647   0.239606
    7       -0.675368  -0.000029
    8       -0.673106  -0.000027
    9        3.232609  -0.000000
   10        3.275483  -0.000000
   11        4.080452  -0.000000
   12        4.100970  -0.000000
   13        5.510565   0.000000
   14        5.699713   0.000000
   15        6.416295   0.000000
   16        6.665291   0.000000
 
  0.0000000E+00  0.4487179E+00 -0.4487179E+00  0.5000000E-02
    1      -11.418994   1.000000
    2      -11.417126   1.000000
    3       -2.745419   1.000000
    4       -2.740945   1.000000
    5       -1.309513   0.473105
    6       -1.255264   0.256133
    7       -0.668831  -0.000024
    8       -0.666556  -0.000022
    9        3.236771  -0.000000
   10        3.294019  -0.000000
   11        4.091005  -0.000000
   12        4.118784  -0.000000
   13        5.435069   0.000000
   14        5.711892   0.000000
   15        6.429076   0.000000
   16        6.759899   0.000000
 
  0.0000000E+00  0.4358974E+00 -0.4358974E+00  0.5000000E-02
    1      -11.424332   1.000000
    2      -11.422094   1.000000
    3       -2.718618   1.000000
    4       -2.713855   1.000000
    5       -1.329561   0.557768
    6       -1.262094   0.281307
    7       -0.660467  -0.000018
    8       -0.658175  -0.000017
    9        3.242740  -0.000000
   10        3.315482  -0.000000
   11        4.105259  -0.000000
   12        4.140899  -0.000000
   13        5.354844   0.000000
   14        5.727325   0.000000
   15        6.450615   0.000000
   16        6.859858   0.000000
 
  0.0000000E+00  0.4230769E+00 -0.4230769E+00  0.5000000E-02
    1      -11.430737   1.000000
    2      -11.428108   1.000000
    3       -2.686007   1.000000
    4       -2.680897   1.000000
    5       -1.352732   0.653065
    6       -1.271011   0.315366
    7       -0.650307  -0.000013
    8       -0.647993  -0.000012
    9        3.249507  -0.000000
   10        3.339593  -0.000000
   11        4.123065  -0.000000
   12        4.167358   0.000000
   13        5.274647   0.000000
   14        5.746258   0.000000
   15        6.479498   0.000000
   16        6.961710   0.000000
 
  0.0000000E+00  0.4102564E+00 -0.4102564E+00  0.5000000E-02
    1      -11.438155   1.000000
    2      -11.435120   1.000000
    3       -2.647676   1.000000
    4       -2.642166   1.000000
    5       -1.378788   0.752175
    6       -1.281841   0.358283
    7       -0.638392  -0.000009
    8       -0.636052  -0.000008
    9        3.255770  -0.000000
   10        3.366127  -0.000000
   11        4.144238   0.000000
   12        4.198185   0.000000
   13        5.198124   0.000000
   14        5.768821   0.000000
   15        6.514823   0.000000
   16        7.062785   0.000000
 
  0.0000000E+00  0.3974359E+00 -0.3974359E+00  0.5000000E-02
    1      -11.446526   1.000000
    2      -11.443074   1.000000
    3       -2.603735   1.000000
    4       -2.597767   1.000000
    5       -1.407465   0.846141
    6       -1.294382   0.409644
    7       -0.624768  -0.000006
    8       -0.622397  -0.000005
    9        3.259986  -0.000000
   10        3.394910  -0.000000
   11        4.168554   0.000000
   12        4.233358   0.000000
   13        5.128242   0.000000
   14        5.795038   0.000000
   15        6.555969   0.000000
   16        7.160933   0.000000
 
  0.0000000E+00  0.3846154E+00 -0.3846154E+00  0.5000000E-02
    1      -11.455781   1.000000
    2      -11.451901   1.000000
    3       -2.554303   1.000000
    4       -2.547828   1.000000
    5       -1.438467   0.925749
    6       -1.308425   0.468508
    7       -0.609490  -0.000004
    8       -0.607086  -0.000003
    9        3.260476  -0.000000
   10        3.425801  -0.000000
   11        4.195756   0.000000
   12        4.272761   0.000000
   13        5.067560   0.000000
   14        5.824818   0.000000
   15        6.602466   0.000000
   16        7.254224   0.000000
 
  0.0000000E+00  0.3717949E+00 -0.3717949E+00  0.5000000E-02
    1      -11.465849   1.000000
    2      -11.461532   1.000000
    3       -2.499520   1.000000
    4       -2.492492   1.000000
    5       -1.471478   0.984210
    6       -1.323753   0.533316
    7       -0.592622  -0.000002
    8       -0.590181  -0.000002
    9        3.255583  -0.000000
   10        3.458649  -0.000000
   11        4.225568   0.000000
   12        4.316134   0.000000
   13        5.018362   0.000000
   14        5.857914   0.000000
   15        6.653907   0.000000
   16        7.340649   0.000000
 
  0.0000000E+00  0.3589744E+00 -0.3589744E+00  0.5000000E-02
    1      -11.476655   1.000000
    2      -11.471889   1.000000
    3       -2.439545   1.000000
    4       -2.431924   1.000000
    5       -1.506163   1.019328
    6       -1.340153   0.601901
    7       -0.574233  -0.000001
    8       -0.571757  -0.000001
    9        3.243867  -0.000000
   10        3.493255  -0.000000
   11        4.257701   0.000000
   12        4.363011   0.000000
   13        4.982682   0.000000
   14        5.893887   0.000000
   15        6.709871   0.000000
   16        7.417848   0.000000
 
  0.0000000E+00  0.3461538E+00 -0.3461538E+00  0.5000000E-02
    1      -11.488117   1.000000
    2      -11.482892   1.000000
    3       -2.374555   1.000000
    4       -2.366316   1.000000
    5       -1.542165   1.033941
    6       -1.357408   0.671618
    7       -0.554403  -0.000001
    8       -0.551892  -0.000000
    9        3.224274  -0.000000
   10        3.529357  -0.000000
   11        4.291864   0.000000
   12        4.412684   0.000000
   13        4.962252   0.000000
   14        5.932048   0.000000
   15        6.769828   0.000000
   16        7.483496   0.000000
 
  0.0000000E+00  0.3333333E+00 -0.3333333E+00  0.5000000E-02
    1      -11.500148   1.000000
    2      -11.494456   1.000000
    3       -2.304756   1.000000
    4       -2.295905   1.000000
    5       -1.579097   1.034325
    6       -1.375304   0.739586
    7       -0.533221  -0.000000
    8       -0.530679  -0.000000
    9        3.196265  -0.000000
   10        3.566621  -0.000000
   11        4.327767   0.000000
   12        4.464206   0.000000
   13        4.958402   0.000000
   14        5.971390   0.000000
   15        6.832970   0.000000
   16        7.534627   0.000000
 
  0.0000000E+00  0.3205128E+00 -0.3205128E+00  0.5000000E-02
    1      -11.512659   1.000000
    2      -11.506496   1.000000
    3       -2.230401   1.000000
    4       -2.220988   1.000000
    5       -1.616509   1.027509
    6       -1.393615   0.803020
    7       -0.510787  -0.000000
    8       -0.508216  -0.000000
    9        3.159852  -0.000000
   10        3.604666  -0.000000
   11        4.365108   0.000000
   12        4.516516   0.000000
   13        4.971911   0.000000
   14        6.010493   0.000000
   15        6.897837   0.000000
   16        7.563402   0.000000
 
  0.0000000E+00  0.3076923E+00 -0.3076923E+00  0.5000000E-02
    1      -11.525559   1.000000
    2      -11.518927   1.000000
    3       -2.151812   1.000000
    4       -2.141982   1.000000
    5       -1.653820   1.018997
    6       -1.412105   0.859575
    7       -0.487207  -0.000000
    8       -0.484613  -0.000000
    9        3.115538  -0.000000
   10        3.643068  -0.000000
   11        4.403543   0.000000
   12        4.568669   0.000000
   13        5.002816   0.000000
   14        6.047394   0.000000
   15        6.961406   0.000000
   16        7.525083   0.000000
 
  0.0000000E+00  0.2948718E+00 -0.2948718E+00  0.5000000E-02
    1      -11.538758   1.000000
    2      -11.531658   1.000000
    3       -2.069535   1.000001
    4       -2.059556   1.000001
    5       -1.690059   1.011858
    6       -1.430505   0.907606
    7       -0.462598  -0.000000
    8       -0.459986  -0.000000
    9        3.064184  -0.000000
   10        3.681368  -0.000000
   11        4.442637   0.000000
   12        4.620094   0.000000
   13        5.050277   0.000000
   14        6.079440   0.000000
   15        7.016640   0.000000
   16        7.409093   0.000000
 
  0.0000000E+00  0.2820513E+00 -0.2820513E+00  0.5000000E-02
    1      -11.552170   1.000000
    2      -11.544599   1.000000
    3       -1.985138   1.000012
    4       -1.974793   1.000016
    5       -1.722951   1.007119
    6       -1.448468   0.946277
    7       -0.437088  -0.000000
    8       -0.434466  -0.000000
    9        3.006850  -0.000000
   10        3.719077  -0.000000
   11        4.481783   0.000000
   12        4.670658   0.000000
   13        5.112645   0.000000
   14        6.103165   0.000000
   15        7.046292   0.000000
   16        7.274553   0.000000
 
  0.0000000E+00  0.2692308E+00 -0.2692308E+00  0.5000000E-02
    1      -11.565699   1.000000
    2      -11.557660   1.000000
    3       -1.907229   1.000119
    4       -1.887998   1.000199
    5       -1.744219   1.004925
    6       -1.465451   0.975490
    7       -0.410811  -0.000000
    8       -0.408187  -0.000000
    9        2.944645  -0.000000
   10        3.755667  -0.000000
   11        4.520118   0.000000
   12        4.720450   0.000000
   13        5.187778   0.000000
   14        6.114432   0.000000
   15        7.016318   0.000000
   16        7.154698   0.000000
 
  0.0000000E+00  0.2564103E+00 -0.2564103E+00  0.5000000E-02
    1      -11.579256   1.000000
    2      -11.570753   1.000000
    3       -1.868689   1.000329
    4       -1.797974   1.001711
    5       -1.723450   1.007060
    6       -1.480352   0.995557
    7       -0.383914  -0.000000
    8       -0.381298  -0.000000
    9        2.878626  -0.000000
   10        3.790554  -0.000000
   11        4.556409   0.000000
   12        4.769423   0.000000
   13        5.273423   0.000000
   14        6.109318   0.000000
   15        6.911402   0.000000
   16        7.073851   0.000000
 
  0.0000000E+00  0.2435897E+00 -0.2435897E+00  0.5000000E-02
    1      -11.592756   1.000000
    2      -11.583795   1.000000
    3       -1.880805   1.000241
    4       -1.708284   1.009020
    5       -1.649097   1.020046
    6       -1.490103   1.006078
    7       -0.356552  -0.000000
    8       -0.353953  -0.000000
    9        2.809740  -0.000000
   10        3.823064  -0.000000
   11        4.588947   0.000000
   12        4.817089   0.000000
   13        5.367453   0.000000
   14        6.086095   0.000000
   15        6.776764   0.000000
   16        7.020235   0.000000
 
  0.0000000E+00  0.2307692E+00 -0.2307692E+00  0.5000000E-02
    1      -11.606110   1.000000
    2      -11.596700   1.000000
    3       -1.909367   1.000112
    4       -1.630749   1.024252
    5       -1.555213   1.035332
    6       -1.483352   0.999006
    7       -0.328889  -0.000000
    8       -0.326319  -0.000000
    9        2.738789  -0.000000
   10        3.852388  -0.000000
   11        4.615483   0.000000
   12        4.862329   0.000000
   13        5.467881   0.000000
   14        6.047502   0.000000
   15        6.641235   0.000000
   16        6.987974   0.000000
 
  0.0000000E+00  0.2179487E+00 -0.2179487E+00  0.5000000E-02
    1      -11.619239   1.000000
    2      -11.609393   1.000000
    3       -1.941517   1.000045
    4       -1.592838   1.032312
    5       -1.455853   0.959839
    6       -1.431839   0.910758
    7       -0.301099  -0.000000
    8       -0.298568  -0.000000
    9        2.666434  -0.000000
   10        3.877503  -0.000000
   11        4.633304   0.000000
   12        4.903250   0.000000
   13        5.572693   0.000000
   14        6.001131   0.000000
   15        6.514915   0.000000
   16        6.975129   0.000000
 
  0.0000000E+00  0.2051282E+00 -0.2051282E+00  0.5000000E-02
    1      -11.632065   1.000000
    2      -11.621794   1.000000
    3       -1.974139   1.000017
    4       -1.590538   1.032702
    5       -1.355338   0.663439
    6       -1.338873   0.596613
    7       -0.273361  -0.000000
    8       -0.270882  -0.000000
    9        2.593201  -0.000000
   10        3.897078  -0.000000
   11        4.639623   0.000000
   12        4.937108   0.000000
   13        5.679379   0.000000
   14        5.957346   0.000000
   15        6.404456   0.000000
   16        6.976976   0.000000
 
  0.0000000E+00  0.1923077E+00 -0.1923077E+00  0.5000000E-02
    1      -11.644507   1.000000
    2      -11.633826   1.000000
    3       -2.006153   1.000006
    4       -1.599480   1.031094
    5       -1.251224   0.241647
    6       -1.232950   0.180332
    7       -0.245867  -0.000000
    8       -0.243451  -0.000000
    9        2.519497  -0.000000
   10        3.909354  -0.000000
   11        4.632448   0.000000
   12        4.960402   0.000000
   13        5.783317   0.000000
   14        5.927344   0.000000
   15        6.316739   0.000000
   16        6.988248   0.000000
 
  0.0000000E+00  0.1794872E+00 -0.1794872E+00  0.5000000E-02
    1      -11.656494   1.000000
    2      -11.645420   1.000000
    3       -2.037048   1.000002
    4       -1.611417   1.028633
    5       -1.143617  -0.004107
    6       -1.123477  -0.020719
    7       -0.218810  -0.000000
    8       -0.216471  -0.000000
    9        2.445635  -0.000000
   10        3.912057  -0.000000
   11        4.611735   0.000000
   12        4.969434   0.000000
   13        5.866090   0.000000
   14        5.931548   0.000000
   15        6.260130   0.000000
   16        7.004816   0.000000
 
  0.0000000E+00  0.1666667E+00 -0.1666667E+00  0.5000000E-02
    1      -11.667955   1.000000
    2      -11.656509   1.000000
    3       -2.066521   1.000001
    4       -1.624045   1.025799
    5       -1.033930  -0.031411
    6       -1.012543  -0.026903
    7       -0.192392  -0.000000
    8       -0.190143  -0.000000
    9        2.371862  -0.000000
   10        3.902461  -0.000000
   11        4.580111   0.000000
   12        4.961581   0.000000
   13        5.897170   0.000000
   14        5.995307   0.000000
   15        6.245055   0.000000
   16        7.024256   0.000000
 
  0.0000000E+00  0.1538462E+00 -0.1538462E+00  0.5000000E-02
    1      -11.678827   1.000000
    2      -11.667031   1.000000
    3       -2.094360   1.000000
    4       -1.636525   1.022915
    5       -0.923226  -0.008987
    6       -0.901209  -0.006263
    7       -0.166817  -0.000000
    8       -0.164672  -0.000000
    9        2.298383  -0.000000
   10        3.877831  -0.000000
   11        4.542286   0.000000
   12        4.936866   0.000000
   13        5.927619   0.000000
   14        6.059526   0.000000
   15        6.278412   0.000000
   16        7.045987   0.000000
 
  0.0000000E+00  0.1410256E+00 -0.1410256E+00  0.5000000E-02
    1      -11.689056   1.000000
    2      -11.676927   1.000000
    3       -2.120406   1.000000
    4       -1.648473   1.020186
    5       -0.812415  -0.001072
    6       -0.790402  -0.000643
    7       -0.142294  -0.000000
    8       -0.140266  -0.000000
    9        2.225399  -0.000000
   10        3.836395  -0.000000
   11        4.503103   0.000000
   12        4.898698   0.000000
   13        5.973945   0.000000
   14        6.113856   0.000000
   15        6.346838   0.000000
   16        7.071334   0.000000
 
  0.0000000E+00  0.1282051E+00 -0.1282051E+00  0.5000000E-02
    1      -11.698585   1.000000
    2      -11.686144   1.000000
    3       -2.144531   1.000000
    4       -1.659683   1.017725
    5       -0.702408  -0.000064
    6       -0.681107  -0.000034
    7       -0.119025  -0.000000
    8       -0.117126  -0.000000
    9        2.153142  -0.000000
   10        3.778451  -0.000000
   11        4.465370   0.000000
   12        4.853042   0.000000
   13        6.035408   0.000000
   14        6.172541   0.000000
   15        6.425530   0.000000
   16        7.103138   0.000000
 
  0.0000000E+00  0.1153846E+00 -0.1153846E+00  0.5000000E-02
    1      -11.707358   1.000000
    2      -11.694633   1.000000
    3       -2.166631   1.000000
    4       -1.670028   1.015580
    5       -0.594202  -0.000002
    6       -0.574420  -0.000001
    7       -0.097210  -0.000000
    8       -0.095453  -0.000000
    9        2.081922  -0.000000
   10        3.706732  -0.000000
   11        4.429015   0.000000
   12        4.806695   0.000000
   13        6.109545   0.000000
   14        6.242026   0.000000
   15        6.497839   0.000000
   16        7.148330   0.000000
 
  0.0000000E+00  0.1025641E+00 -0.1025641E+00  0.5000000E-02
    1      -11.715331   1.000000
    2      -11.702352   1.000000
    3       -2.186618   1.000000
    4       -1.679423   1.013758
    5       -0.488962  -0.000000
    6       -0.471607  -0.000000
    7       -0.077044  -0.000000
    8       -0.075441  -0.000000
    9        2.012193  -0.000000
   10        3.625670  -0.000000
   11        4.392190   0.000000
   12        4.765582   0.000000
   13        6.193806   0.000000
   14        6.322364   0.000000
   15        6.555158   0.000000
   16        7.173798   0.000000
 
  0.0000000E+00  0.8974359E-01 -0.8974359E-01  0.5000000E-02
    1      -11.722462   1.000000
    2      -11.709257   1.000000
    3       -2.204416   1.000000
    4       -1.687810   1.012245
    5       -0.388064  -0.000000
    6       -0.374115  -0.000000
    7       -0.058710  -0.000000
    8       -0.057272  -0.000000
    9        1.944620  -0.000000
   10        3.540258  -0.000000
   11        4.353374   0.000000
   12        4.733387   0.000000
   13        6.285741   0.000000
   14        6.411503   0.000000
   15        6.594807   0.000000
   16        7.115287   0.000000
 
  0.0000000E+00  0.7692308E-01 -0.7692308E-01  0.5000000E-02
    1      -11.728715   1.000000
    2      -11.715313   1.000000
    3       -2.219961   1.000000
    4       -1.695148   1.011012
    5       -0.293191  -0.000000
    6       -0.283578  -0.000000
    7       -0.042377  -0.000000
    8       -0.041113  -0.000000
    9        1.880157  -0.000000
   10        3.455294  -0.000000
   11        4.312873   0.000000
   12        4.710964   0.000000
   13        6.382784   0.000000
   14        6.506592   0.000000
   15        6.619052   0.000000
   16        7.061081   0.000000
 
  0.0000000E+00  0.6410256E-01 -0.6410256E-01  0.5000000E-02
    1      -11.734064   1.000000
    2      -11.720489   1.000000
    3       -2.233199   1.000000
    4       -1.701402   1.010029
    5       -0.206553  -0.000000
    6       -0.201646  -0.000000
    7       -0.028184  -0.000000
    8       -0.027102  -0.000000
    9        1.820123  -0.000000
   10        3.375101  -0.000000
   11        4.272743   0.000000
   12        4.696954   0.000000
   13        6.481580   0.000000
   14        6.601197   0.000000
   15        6.635985   0.000000
   16        7.019245   0.000000
 
  0.0000000E+00  0.5128205E-01 -0.5128205E-01  0.5000000E-02
    1      -11.738478   1.000000
    2      -11.724760   1.000000
    3       -2.244088   1.000000
    4       -1.706548   1.009267
    5       -0.132619  -0.000000
    6       -0.128293  -0.000000
    7       -0.016216  -0.000000
    8       -0.015327  -0.000000
    9        1.766246  -0.000000
   10        3.303506  -0.000000
   11        4.235736   0.000000
   12        4.689085   0.000000
   13        6.574225   0.000000
   14        6.637907   0.000000
   15        6.707081   0.000000
   16        6.986385   0.000000
 
  0.0000000E+00  0.3846154E-01 -0.3846154E-01  0.5000000E-02
    1      -11.741934   1.000000
    2      -11.728104   1.000000
    3       -2.252594   1.000000
    4       -1.710567   1.008702
    5       -0.074653  -0.000000
    6       -0.065319  -0.000000
    7       -0.006375  -0.000000
    8       -0.005738  -0.000000
    9        1.720639  -0.000000
   10        3.243859  -0.000000
   11        4.204401   0.000000
   12        4.685167   0.000000
   13        6.618402   0.000000
   14        6.687051   0.000000
   15        6.793904   0.000000
   16        6.966849   0.000000
 
  0.0000000E+00  0.2564103E-01 -0.2564103E-01  0.5000000E-02
    1      -11.744414   1.000000
    2      -11.730505   1.000000
    3       -2.258689   1.000000
    4       -1.713447   1.008313
    5       -0.032716  -0.000000
    6       -0.019466  -0.000000
    7        0.001947  -0.000000
    8        0.002957  -0.000000
    9        1.685653  -0.000000
   10        3.198999  -0.000000
   11        4.180703   0.000000
   12        4.683500   0.000000
   13        6.622120   0.000000
   14        6.758309   0.000000
   15        6.854603   0.000000
   16        6.969848   0.000000
 
  0.0000000E+00  0.1282051E-01 -0.1282051E-01  0.5000000E-02
    1      -11.745905   1.000000
    2      -11.731949   1.000000
    3       -2.262354   1.000000
    4       -1.715178   1.008085
    5       -0.009569  -0.000000
    6       -0.001149  -0.000000
    7        0.009440  -0.000000
    8        0.018919  -0.000000
    9        1.663536  -0.000000
   10        3.171132  -0.000000
   11        4.165977   0.000000
   12        4.682934   0.000000
   13        6.621659   0.000000
   14        6.806318   0.000000
   15        6.875535   0.000000
   16        6.970675   0.000000
 
  0.0000000E+00  0.0000000E+00  0.0000000E+00  0.5000000E-02
    1      -11.746400   1.000000
    2      -11.732432   1.000000
    3       -2.263577   1.000000
    4       -1.715756   1.008010
    5       -0.003672  -0.000000
    6        0.001628  -0.000000
    7        0.013880  -0.000000
    8        0.027808  -0.000000
    9        1.655956  -0.000000
   10        3.161679  -0.000000
   11        4.160985   0.000000
   12        4.682816   0.000000
   13        6.621274   0.000000
   14        6.822140   0.000000
   15        6.878479   0.000000
   16        6.972975   0.000000
 
  0.0000000E+00  0.0000000E+00  0.0000000E+00  0.5000000E-02
    1      -11.746400   1.000000
    2      -11.732432   1.000000
    3       -2.263577   1.000000
    4       -1.715756   1.008010
    5       -0.003672  -0.000000
    6        0.001628  -0.000000
    7        0.013880  -0.000000
    8        0.027808  -0.000000
    9        1.655956  -0.000000
   10        3.161679  -0.000000
   11        4.160985   0.000000
   12        4.682816   0.000000
   13        6.621274   0.000000
   14        6.822141   0.000000
   15        6.878472   0.000000
   16        6.973024   0.000000
 
  0.0000000E+00  0.1282051E-01  0.0000000E+00  0.5000000E-02
    1      -11.745908   1.000000
    2      -11.731946   1.000000
    3       -2.262506   1.000000
    4       -1.714931   1.008117
    5       -0.009576  -0.000000
    6       -0.001152  -0.000000
    7        0.009443  -0.000000
    8        0.018924  -0.000000
    9        1.662946  -0.000000
   10        3.171757  -0.000000
   11        4.166043   0.000000
   12        4.683347   0.000000
   13        6.620636   0.000000
   14        6.806268   0.000000
   15        6.875531   0.000000
   16        6.970866   0.000000
 
  0.0000000E+00  0.2564103E-01  0.0000000E+00  0.5000000E-02
    1      -11.744427   1.000000
    2      -11.730491   1.000000
    3       -2.259297   1.000000
    4       -1.712460   1.008445
    5       -0.032737  -0.000000
    6       -0.019485  -0.000000
    7        0.001954  -0.000000
    8        0.002968  -0.000000
    9        1.683304  -0.000000
   10        3.201555  -0.000000
   11        4.180975   0.000000
   12        4.685056   0.000000
   13        6.618151   0.000000
   14        6.758059   0.000000
   15        6.854750   0.000000
   16        6.970210   0.000000
 
  0.0000000E+00  0.3846154E-01  0.0000000E+00  0.5000000E-02
    1      -11.741964   1.000000
    2      -11.728075   1.000000
    3       -2.253957   1.000000
    4       -1.708354   1.009010
    5       -0.074657  -0.000000
    6       -0.065411  -0.000000
    7       -0.006371  -0.000000
    8       -0.005724  -0.000000
    9        1.715384  -0.000000
   10        3.249827  -0.000000
   11        4.205019   0.000000
   12        4.688311   0.000000
   13        6.610529   0.000000
   14        6.685834   0.000000
   15        6.793916   0.000000
   16        6.968115   0.000000
 
  0.0000000E+00  0.5128205E-01  0.0000000E+00  0.5000000E-02
    1      -11.738533   1.000000
    2      -11.724708   1.000000
    3       -2.246501   1.000000
    4       -1.702634   1.009843
    5       -0.132453  -0.000000
    6       -0.128686  -0.000000
    7       -0.016216  -0.000000
    8       -0.015312  -0.000000
    9        1.756960  -0.000000
   10        3.314684  -0.000000
   11        4.236798   0.000000
   12        4.693812   0.000000
   13        6.570452   0.000000
   14        6.627040   0.000000
   15        6.706544   0.000000
   16        6.986830   0.000000
 
  0.0000000E+00  0.6410256E-01  0.0000000E+00  0.5000000E-02
    1      -11.734149   1.000000
    2      -11.720409   1.000000
    3       -2.236948   1.000000
    4       -1.695326   1.010983
    5       -0.206470  -0.000000
    6       -0.202172  -0.000000
    7       -0.028186  -0.000000
    8       -0.027082  -0.000000
    9        1.805701  -0.000000
   10        3.393796  -0.000000
   11        4.274164   0.000000
   12        4.702717   0.000000
   13        6.479936   0.000000
   14        6.606313   0.000000
   15        6.610311   0.000000
   16        7.024740   0.000000
 
  0.0000000E+00  0.7692308E-01  0.0000000E+00  0.5000000E-02
    1      -11.728833   1.000000
    2      -11.715198   1.000000
    3       -2.225320   1.000000
    4       -1.686466   1.012480
    5       -0.293536  -0.000000
    6       -0.283988  -0.000000
    7       -0.042381  -0.000000
    8       -0.041085  -0.000000
    9        1.859505  -0.000000
   10        3.484574  -0.000000
   11        4.314027   0.000000
   12        4.716740   0.000000
   13        6.381306   0.000000
   14        6.512636   0.000000
   15        6.584886   0.000000
   16        7.063451   0.000000
 
  0.0000000E+00  0.8974359E-01  0.0000000E+00  0.5000000E-02
    1      -11.722621   1.000000
    2      -11.709102   1.000000
    3       -2.211648   1.000000
    4       -1.676099   1.014388
    5       -0.388849  -0.000000
    6       -0.374501  -0.000000
    7       -0.058720  -0.000000
    8       -0.057234  -0.000000
    9        1.916669  -0.000000
   10        3.584281  -0.000000
   11        4.352389   0.000000
   12        4.738035   0.000000
   13        6.284163   0.000000
   14        6.419233   0.000000
   15        6.551846   0.000000
   16        7.112681   0.000000
 
  0.0000000E+00  0.1025641E+00  0.0000000E+00  0.5000000E-02
    1      -11.715536   1.000000
    2      -11.702153   1.000000
    3       -2.195968   1.000000
    4       -1.664281   1.016755
    5       -0.490270  -0.000000
    6       -0.471991  -0.000000
    7       -0.077064  -0.000000
    8       -0.075395  -0.000000
    9        1.975909  -0.000000
   10        3.690067  -0.000000
   11        4.384976   0.000000
   12        4.768443   0.000000
   13        6.192040   0.000000
   14        6.333324   0.000000
   15        6.502530   0.000000
   16        7.159739   0.000000
 
  0.0000000E+00  0.1153846E+00  0.0000000E+00  0.5000000E-02
    1      -11.707613   1.000000
    2      -11.694386   1.000000
    3       -2.178324   1.000000
    4       -1.651076   1.019604
    5       -0.596133  -0.000002
    6       -0.574811  -0.000001
    7       -0.097245  -0.000000
    8       -0.095399  -0.000000
    9        2.036330  -0.000000
   10        3.798941  -0.000000
   11        4.408560   0.000000
   12        4.807997   0.000000
   13        6.107521   0.000000
   14        6.258383   0.000000
   15        6.434063   0.000000
   16        7.144441   0.000000
 
  0.0000000E+00  0.1282051E+00  0.0000000E+00  0.5000000E-02
    1      -11.698893   1.000000
    2      -11.685842   1.000000
    3       -2.158763   1.000000
    4       -1.636563   1.022906
    5       -0.705077  -0.000069