    2    2    1    1
  0.1049331E+03  0.4533000E-09  0.4532263E-09  0.1179600E-08  0.5000000E-15
  1.000000000000000E-004
  CAR 
 Bi SCF                                  
     10   1099      8
 
  0.0000000E+00  0.0000000E+00  0.0000000E+00  0.4551661E-03
    1      -11.749046   1.000000
    2      -11.735091   1.000000
    3       -2.263555   1.000000
    4       -1.715966   1.020740
    5       -0.007861  -0.000000
    6        0.001791  -0.000000
    7        0.012010  -0.000000
    8        0.021528  -0.000000
 
  0.7692308E-01  0.0000000E+00  0.0000000E+00  0.9103323E-03
    1      -11.731484   1.000000
    2      -11.717861   1.000000
    3       -2.225306   1.000000
    4       -1.686678   1.027460
    5       -0.301441  -0.000000
    6       -0.292050  -0.000000
    7       -0.040016  -0.000000
    8       -0.038723  -0.000000
 
  0.1538462E+00  0.0000000E+00  0.0000000E+00  0.9103323E-03
    1      -11.681911   1.000000
    2      -11.669283   1.000000
    3       -2.114148   1.000002
    4       -1.604240   1.032234
    5       -0.935219  -0.003248
    6       -0.909323  -0.001926
    7       -0.164623  -0.000000
    8       -0.162287  -0.000000
 
  0.2307692E+00  0.0000000E+00  0.0000000E+00  0.9103323E-03
    1      -11.609557   1.000000
    2      -11.598613   1.000000
    3       -1.943117   1.000293
    4       -1.590664   1.027461
    5       -1.582153   1.023118
    6       -1.466081   0.811186
    7       -0.326992  -0.000000
    8       -0.323888  -0.000000
 
  0.3076923E+00  0.0000000E+00  0.0000000E+00  0.9103323E-03
    1      -11.529227   1.000000
    2      -11.520658   1.000000
    3       -2.156515   1.000000
    4       -2.139160   1.000001
    5       -1.722197   1.019344
    6       -1.347161   0.339754
    7       -0.485699  -0.000000
    8       -0.482091  -0.000000
 
  0.3846154E+00  0.0000000E+00  0.0000000E+00  0.9103323E-03
    1      -11.459340   1.000000
    2      -11.453771   1.000000
    3       -2.560582   1.000000
    4       -2.549153   1.000000
    5       -1.504248   0.916454
    6       -1.249718   0.047113
    7       -0.608420  -0.000000
    8       -0.604517  -0.000000
 
  0.4615385E+00  0.0000000E+00  0.0000000E+00  0.9103323E-03
    1      -11.417892   1.000000
    2      -11.415565   1.000000
    3       -2.772900   1.000000
    4       -2.764359   1.000000
    5       -1.329552   0.272033
    6       -1.229724   0.015114
    7       -0.674633  -0.000003
    8       -0.670600  -0.000003
 
  0.0000000E+00  0.7692308E-01  0.0000000E+00  0.9103323E-03
    1      -11.731472   1.000000
    2      -11.717849   1.000000
    3       -2.225290   1.000000
    4       -1.686660   1.027464
    5       -0.300869  -0.000000
    6       -0.291476  -0.000000
    7       -0.040752  -0.000000
    8       -0.039454  -0.000000
 
  0.7692308E-01  0.7692308E-01  0.0000000E+00  0.9103323E-03
    1      -11.697822   1.000000
    2      -11.684981   1.000000
    3       -2.149611   1.000000
    4       -1.631921   1.035453
    5       -0.742220  -0.000026
    6       -0.723405  -0.000015
    7       -0.143303  -0.000000
    8       -0.140318  -0.000000
 
  0.1538462E+00  0.7692308E-01  0.0000000E+00  0.9103323E-03
    1      -11.636706   1.000000
    2      -11.625307   1.000000
    3       -2.006891   1.000051
    4       -1.535770   0.976050
    5       -1.334908   0.292112
    6       -1.307045   0.193606
    7       -0.327193  -0.000000
    8       -0.317020  -0.000000
 
  0.2307692E+00  0.7692308E-01  0.0000000E+00  0.9103323E-03
    1      -11.560064   1.000000
    2      -11.550806   1.000000
    3       -1.919778   1.000525
    4       -1.891548   1.001018
    5       -1.795909   1.006769
    6       -1.398449   0.553313
    7       -0.529761  -0.000000
    8       -0.512935  -0.000000
 
  0.3076923E+00  0.7692308E-01  0.0000000E+00  0.9103323E-03
    1      -11.484498   1.000000
    2      -11.478007   1.000000
    3       -2.367857   1.000000
    4       -2.353133   1.000000
    5       -1.587090   1.025773
    6       -1.284375   0.125955
    7       -0.703007  -0.000008
    8       -0.682382  -0.000004
 
  0.3846154E+00  0.7692308E-01  0.0000000E+00  0.9103323E-03
    1      -11.428364   1.000000
    2      -11.425067   1.000000
    3       -2.662678   1.000000
    4       -2.652488   1.000000
    5       -1.386097   0.501165
    6       -1.224129   0.007819
    7       -0.817180  -0.000218
    8       -0.795067  -0.000121
 
  0.4615385E+00  0.7692308E-01  0.0000000E+00  0.9103323E-03
    1      -11.407398   1.000000
    2      -11.405855   1.000000
    3       -2.764167   1.000000
    4       -2.756043   1.000000
    5       -1.278319   0.109998
    6       -1.231220   0.017184
    7       -0.856567  -0.000588
    8       -0.834776  -0.000344
 
 -0.4615385E+00  0.7692308E-01  0.0000000E+00  0.9103323E-03
    1      -11.428979   1.000000
    2      -11.424519   1.000000
    3       -2.662353   1.000000
    4       -2.651963   1.000000
    5       -1.399865   0.559260
    6       -1.209420  -0.008156
    7       -0.816223  -0.000213
    8       -0.796561  -0.000126
 
 -0.3846154E+00  0.7692308E-01  0.0000000E+00  0.9103323E-03
    1      -11.485091   1.000000
    2      -11.477528   1.000000
    3       -2.368125   1.000000
    4       -2.351045   1.000000
    5       -1.598561   1.030537
    6       -1.271954   0.094220
    7       -0.700870  -0.000007
    8       -0.685397  -0.000004
 
 -0.3076923E+00  0.7692308E-01  0.0000000E+00  0.9103323E-03
    1      -11.560564   1.000000
    2      -11.550438   1.000000
    3       -1.920509   1.000515
    4       -1.886159   1.001149
    5       -1.806226   1.005671
    6       -1.389717   0.516479
    7       -0.526291  -0.000000
    8       -0.517366  -0.000000
 
 -0.2307692E+00  0.7692308E-01  0.0000000E+00  0.9103323E-03
    1      -11.637080   1.000000
    2      -11.625053   1.000000
    3       -2.011935   1.000044
    4       -1.527713   0.963132
    5       -1.342108   0.319844
    6       -1.299803   0.170676
    7       -0.323731  -0.000000
    8       -0.321124  -0.000000
 
 -0.1538462E+00  0.7692308E-01  0.0000000E+00  0.9103323E-03
    1      -11.698055   1.000000
    2      -11.684829   1.000000
    3       -2.152587   1.000000
    4       -1.627990   1.035428
    5       -0.755879  -0.000039
    6       -0.708104  -0.000009
    7       -0.149716  -0.000000
    8       -0.133645  -0.000000
 
 -0.7692308E-01  0.7692308E-01  0.0000000E+00  0.9103323E-03
    1      -11.731548   1.000000
    2      -11.717801   1.000000
    3       -2.226262   1.000000
    4       -1.685414   1.027742
    5       -0.317002  -0.000000
    6       -0.274054  -0.000000
    7       -0.055111  -0.000000
    8       -0.024831  -0.000000
 
  0.0000000E+00  0.1538462E+00  0.0000000E+00  0.9103323E-03
    1      -11.681865   1.000000
    2      -11.669237   1.000000
    3       -2.114083   1.000002
    4       -1.604172   1.032216
    5       -0.934817  -0.003223
    6       -0.908889  -0.001909
    7       -0.165498  -0.000000
    8       -0.163162  -0.000000
 
  0.7692308E-01  0.1538462E+00  0.0000000E+00  0.9103323E-03
    1      -11.636672   1.000000
    2      -11.625273   1.000000
    3       -2.006842   1.000051
    4       -1.535713   0.975964
    5       -1.334668   0.291202
    6       -1.306793   0.192788
    7       -0.327783  -0.000000
    8       -0.317601  -0.000000
 
  0.1538462E+00  0.1538462E+00  0.0000000E+00  0.9103323E-03
    1      -11.571063   1.000000
    2      -11.561567   1.000000
    3       -1.857640   1.002123
    4       -1.765901   1.010882
    5       -1.757156   1.012350
    6       -1.415406   0.623678
    7       -0.611110  -0.000000
    8       -0.586094  -0.000000
 
  0.2307692E+00  0.1538462E+00  0.0000000E+00  0.9103323E-03
    1      -11.498657   1.000000
    2      -11.491662   1.000000
    3       -2.182184   1.000000
    4       -2.160656   1.000000
    5       -1.631799   1.035454
    6       -1.303944   0.183640
    7       -0.901709  -0.001639
    8       -0.866252  -0.000740
 
  0.3076923E+00  0.1538462E+00  0.0000000E+00  0.9103323E-03
    1      -11.436056   1.000000
    2      -11.432041   1.000000
    3       -2.479774   1.000000
    4       -2.463906   1.000000
    5       -1.426984   0.670149
    6       -1.221649   0.004805
    7       -1.121658  -0.034214
    8       -1.082926  -0.027001
 
  0.3846154E+00  0.1538462E+00  0.0000000E+00  0.9103323E-03
    1      -11.399354   1.000000
    2      -11.397923   1.000000
    3       -2.638174   1.000000
    4       -2.628504   1.000000
    5       -1.269428   0.088242
    6       -1.241064   0.032097
    7       -1.201380  -0.015057
    8       -1.196746  -0.018491
 
  0.4615385E+00  0.1538462E+00  0.0000000E+00  0.9103323E-03
    1      -11.400367   1.000000
    2      -11.396978   1.000000
    3       -2.637631   1.000000
    4       -2.628114   1.000000
    5       -1.299796   0.170654
    6       -1.232729   0.019324
    7       -1.206825  -0.010518
    8       -1.168649  -0.031896
 
 -0.4615385E+00  0.1538462E+00  0.0000000E+00  0.9103323E-03
    1      -11.437355   1.000000
    2      -11.430925   1.000000
    3       -2.480558   1.000000
    4       -2.460290   1.000000
    5       -1.455999   0.777651
    6       -1.191269  -0.022064
    7       -1.113471  -0.033074
    8       -1.091510  -0.028899
 
 -0.3846154E+00  0.1538462E+00  0.0000000E+00  0.9103323E-03
    1      -11.499822   1.000000
    2      -11.490747   1.000000
    3       -2.186858   1.000000
    4       -2.150867   1.000000
    5       -1.654930   1.033560
    6       -1.279972   0.114263
    7       -0.888652  -0.001233
    8       -0.880629  -0.001030
 
 -0.3076923E+00  0.1538462E+00  0.0000000E+00  0.9103323E-03
    1      -11.571992   1.000000
    2      -11.560891   1.000000
    3       -1.864762   1.001830
    4       -1.781805   1.008526
    5       -1.743458   1.014890
    6       -1.400023   0.559926
    7       -0.603996  -0.000000
    8       -0.594350  -0.000000
 
 -0.2307692E+00  0.1538462E+00  0.0000000E+00  0.9103323E-03
    1      -11.637312   1.000000
    2      -11.624834   1.000000
    3       -2.015609   1.000040
    4       -1.521245   0.951630
    5       -1.355195   0.372078
    6       -1.286833   0.132693
    7       -0.334982  -0.000000
    8       -0.310302  -0.000000
 
 -0.1538462E+00  0.1538462E+00  0.0000000E+00  0.9103323E-03
    1      -11.682189   1.000000
    2      -11.669023   1.000000
    3       -2.118415   1.000001
    4       -1.598209   1.030418
    5       -0.955432  -0.004746
    6       -0.886673  -0.001180
    7       -0.180004  -0.000000
    8       -0.147581  -0.000000
 
 -0.7692308E-01  0.1538462E+00  0.0000000E+00  0.9103323E-03
    1      -11.698021   1.000000
    2      -11.684795   1.000000
    3       -2.152539   1.000000
    4       -1.627941   1.035426
    5       -0.755726  -0.000039
    6       -0.707898  -0.000009
    7       -0.150172  -0.000000
    8       -0.134059  -0.000000
 
  0.0000000E+00  0.2307692E+00  0.0000000E+00  0.9103323E-03
    1      -11.609460   1.000000
    2      -11.598516   1.000000
    3       -1.942974   1.000294
    4       -1.590398   1.027342
    5       -1.581884   1.022961
    6       -1.465919   0.810663
    7       -0.328037  -0.000000
    8       -0.324933  -0.000000
 
  0.7692308E-01  0.2307692E+00  0.0000000E+00  0.9103323E-03
    1      -11.559977   1.000000
    2      -11.550719   1.000000
    3       -1.919529   1.000528
    4       -1.891268   1.001024
    5       -1.795768   1.006785
    6       -1.398315   0.552750
    7       -0.530721  -0.000000
    8       -0.513883  -0.000000
 
  0.1538462E+00  0.2307692E+00  0.0000000E+00  0.9103323E-03
    1      -11.498605   1.000000
    2      -11.491611   1.000000
    3       -2.182040   1.000000
    4       -2.160501   1.000000
    5       -1.631721   1.035454
    6       -1.303860   0.183375
    7       -0.902213  -0.001657
    8       -0.866748  -0.000748
 
  0.2307692E+00  0.2307692E+00  0.0000000E+00  0.9103323E-03
    1      -11.438853   1.000000
    2      -11.434573   1.000000
    3       -2.369309   1.000000
    4       -2.346668   1.000000
    5       -1.441385   0.725351
    6       -1.296166   0.159619
    7       -1.246573   0.041444
    8       -1.219810   0.002658
 
  0.3076923E+00  0.2307692E+00  0.0000000E+00  0.9103323E-03
    1      -11.395097   1.000000
    2      -11.393437   1.000000
    3       -2.464236   1.000000
    4       -2.444952   1.000000
    5       -1.589531   1.026946
    6       -1.535597   0.975788
    7       -1.271796   0.093841
    8       -1.178229  -0.028631
 
  0.3846154E+00  0.2307692E+00  0.0000000E+00  0.9103323E-03
    1      -11.380075   1.000000
    2      -11.377431   1.000000
    3       -2.484307   1.000000
    4       -2.476525   1.000000
    5       -1.693638   1.025881
    6       -1.651657   1.034006
    7       -1.222421   0.005730
    8       -1.145951  -0.035355
 
  0.4615385E+00  0.2307692E+00  0.0000000E+00  0.9103323E-03
    1      -11.397083   1.000000
    2      -11.391636   1.000000
    3       -2.466512   1.000000
    4       -2.439363   1.000000
    5       -1.573879   1.017769
    6       -1.554921   1.000789
    7       -1.325150   0.255906
    8       -1.119510  -0.033944
 
 -0.4615385E+00  0.2307692E+00  0.0000000E+00  0.9103323E-03
    1      -11.440873   1.000000
    2      -11.432875   1.000000
    3       -2.379596   1.000000
    4       -2.330372   1.000000
    5       -1.489695   0.880550
    6       -1.278884   0.111449
    7       -1.267666   0.084167
    8       -1.165932  -0.032607
 
 -0.3846154E+00  0.2307692E+00  0.0000000E+00  0.9103323E-03
    1      -11.500321   1.000000
    2      -11.490269   1.000000
    3       -2.199335   1.000000
    4       -2.135327   1.000001
    5       -1.667434   1.031473
    6       -1.266885   0.082387
    7       -0.894426  -0.001400
    8       -0.875200  -0.000910
 
 -0.3076923E+00  0.2307692E+00  0.0000000E+00  0.9103323E-03
    1      -11.561255   1.000000
    2      -11.549781   1.000000
    3       -1.935843   1.000353
    4       -1.860076   1.002018
    5       -1.826735   1.003908
    6       -1.374276   0.451235
    7       -0.537198  -0.000000
    8       -0.506989  -0.000000
 
 -0.2307692E+00  0.2307692E+00  0.0000000E+00  0.9103323E-03
    1      -11.610245   1.000000
    2      -11.597965   1.000000
    3       -1.953774   1.000222
    4       -1.615102   1.034408
    5       -1.549822   0.994989
    6       -1.457131   0.781524
    7       -0.343108  -0.000000
    8       -0.308204  -0.000000
 
 -0.1538462E+00  0.2307692E+00  0.0000000E+00  0.9103323E-03
    1      -11.637262   1.000000
    2      -11.624785   1.000000
    3       -2.015536   1.000040
    4       -1.521175   0.951499
    5       -1.355402   0.372919
    6       -1.287028   0.133233
    7       -0.334955  -0.000000
    8       -0.310263  -0.000000
 
 -0.7692308E-01  0.2307692E+00  0.0000000E+00  0.9103323E-03
    1      -11.636996   1.000000
    2      -11.624968   1.000000
    3       -2.011812   1.000044
    4       -1.527588   0.962920
    5       -1.342081   0.319736
    6       -1.299736   0.170469
    7       -0.324294  -0.000000
    8       -0.321666  -0.000000
 
  0.0000000E+00  0.3076923E+00  0.0000000E+00  0.9103323E-03
    1      -11.529071   1.000000
    2      -11.520503   1.000000
    3       -2.156370   1.000000
    4       -2.138999   1.000001
    5       -1.721964   1.019396
    6       -1.346918   0.338791
    7       -0.486899  -0.000000
    8       -0.483290  -0.000000
 
  0.7692308E-01  0.3076923E+00  0.0000000E+00  0.9103323E-03
    1      -11.484353   1.000000
    2      -11.477862   1.000000
    3       -2.367669   1.000000
    4       -2.352935   1.000000
    5       -1.586869   1.025662
    6       -1.284141   0.125324
    7       -0.704163  -0.000008
    8       -0.683531  -0.000004
 
  0.1538462E+00  0.3076923E+00  0.0000000E+00  0.9103323E-03
    1      -11.435945   1.000000
    2      -11.431930   1.000000
    3       -2.479629   1.000000
    4       -2.463751   1.000000
    5       -1.426812   0.669470
    6       -1.221472   0.004596
    7       -1.122421  -0.034304
    8       -1.083691  -0.027174
 
  0.2307692E+00  0.3076923E+00  0.0000000E+00  0.9103323E-03
    1      -11.395038   1.000000
    2      -11.393378   1.000000
    3       -2.464173   1.000000
    4       -2.444882   1.000000
    5       -1.589864   1.027100
    6       -1.535925   0.976283
    7       -1.271701   0.093613
    8       -1.178127  -0.028673
 
  0.3076923E+00  0.3076923E+00  0.0000000E+00  0.9103323E-03
    1      -11.372728   1.000000
    2      -11.370341   1.000000
    3       -2.322687   1.000000
    4       -2.298199   1.000000
    5       -1.985627   1.000094
    6       -1.920107   1.000520
    7       -1.196234  -0.018847
    8       -1.135714  -0.035359
 
  0.3846154E+00  0.3076923E+00  0.0000000E+00  0.9103323E-03
    1      -11.374036   1.000000
    2      -11.369153   1.000000
    3       -2.331945   1.000000
    4       -2.285462   1.000000
    5       -1.957933   1.000199
    6       -1.951071   1.000239
    7       -1.248451   0.044801
    8       -1.079722  -0.026273
 
  0.4615385E+00  0.3076923E+00  0.0000000E+00  0.9103323E-03
    1      -11.397971   1.000000
    2      -11.390773   1.000000
    3       -2.483797   1.000000
    4       -2.418538   1.000000
    5       -1.575879   1.019169
    6       -1.557842   1.003867
    7       -1.352857   0.362595
    8       -1.085507  -0.027581
 
 -0.4615385E+00  0.3076923E+00  0.0000000E+00  0.9103323E-03
    1      -11.438704   1.000000
    2      -11.429621   1.000000
    3       -2.504009   1.000000
    4       -2.432316   1.000000
    5       -1.495484   0.895471
    6       -1.157127  -0.034324
    7       -1.106259  -0.031852
    8       -1.089496  -0.028463
 
 -0.3846154E+00  0.3076923E+00  0.0000000E+00  0.9103323E-03
    1      -11.486565   1.000000
    2      -11.476113   1.000000
    3       -2.394504   1.000000
    4       -2.319037   1.000000
    5       -1.635641   1.035369
    6       -1.230172   0.015729
    7       -0.710187  -0.000010
    8       -0.676539  -0.000003
 
 -0.3076923E+00  0.3076923E+00  0.0000000E+00  0.9103323E-03
    1      -11.530601   1.000000
    2      -11.519348   1.000000
    3       -2.182557   1.000000
    4       -2.105527   1.000002
    5       -1.753897   1.012928
    6       -1.313245   0.214172
    7       -0.502534  -0.000000
    8       -0.465549  -0.000000
 
 -0.2307692E+00  0.3076923E+00  0.0000000E+00  0.9103323E-03
    1      -11.561200   1.000000
    2      -11.549726   1.000000
    3       -1.936139   1.000350
    4       -1.860397   1.002005
    5       -1.826666   1.003913
    6       -1.374192   0.450882
    7       -0.536955  -0.000000
    8       -0.506749  -0.000000
 
 -0.1538462E+00  0.3076923E+00  0.0000000E+00  0.9103323E-03
    1      -11.571887   1.000000
    2      -11.560786   1.000000
    3       -1.864664   1.001833
    4       -1.782114   1.008484
    5       -1.743808   1.014822
    6       -1.399868   0.559276
    7       -0.603991  -0.000000
    8       -0.594324  -0.000000
 
 -0.7692308E-01  0.3076923E+00  0.0000000E+00  0.9103323E-03
    1      -11.560422   1.000000
    2      -11.550296   1.000000
    3       -1.920538   1.000515
    4       -1.886186   1.001149
    5       -1.806044   1.005689
    6       -1.389502   0.515573
    7       -0.526989  -0.000000
    8       -0.518095  -0.000000
 
  0.0000000E+00  0.3846154E+00  0.0000000E+00  0.9103323E-03
    1      -11.459133   1.000000
    2      -11.453563   1.000000
    3       -2.560531   1.000000
    4       -2.549094   1.000000
    5       -1.503920   0.915703
    6       -1.249381   0.046495
    7       -0.609733  -0.000000
    8       -0.605829  -0.000000
 
  0.7692308E-01  0.3846154E+00  0.0000000E+00  0.9103323E-03
    1      -11.428168   1.000000
    2      -11.424870   1.000000
    3       -2.662597   1.000000
    4       -2.652405   1.000000
    5       -1.385783   0.499838
    6       -1.223801   0.007413
    7       -0.818397  -0.000226
    8       -0.796286  -0.000125
 
  0.1538462E+00  0.3846154E+00  0.0000000E+00  0.9103323E-03
    1      -11.399193   1.000000
    2      -11.397762   1.000000
    3       -2.638138   1.000000
    4       -2.628468   1.000000
    5       -1.269203   0.087716
    6       -1.241775   0.033261
    7       -1.201597  -0.014887
    8       -1.197120  -0.018228
 
  0.2307692E+00  0.3846154E+00  0.0000000E+00  0.9103323E-03
    1      -11.379967   1.000000
    2      -11.377322   1.000000
    3       -2.484395   1.000000
    4       -2.476615   1.000000
    5       -1.693950   1.025809
    6       -1.651986   1.033963
    7       -1.222225   0.005493
    8       -1.145770  -0.035362
 
  0.3076923E+00  0.3846154E+00  0.0000000E+00  0.9103323E-03
    1      -11.373986   1.000000
    2      -11.369104   1.000000
    3       -2.332276   1.000000
    4       -2.285805   1.000000
    5       -1.957740   1.000200
    6       -1.950879   1.000240
    7       -1.248357   0.044631
    8       -1.079637  -0.026254
 
  0.3846154E+00  0.3846154E+00  0.0000000E+00  0.9103323E-03
    1      -11.382225   1.000000
    2      -11.375326   1.000000
    3       -2.514246   1.000000
    4       -2.440401   1.000000
    5       -1.689808   1.026754
    6       -1.662450   1.032371
    7       -1.303543   0.182370
    8       -1.054898  -0.020564
 
  0.4615385E+00  0.3846154E+00  0.0000000E+00  0.9103323E-03
    1      -11.402963   1.000000
    2      -11.394449   1.000000
    3       -2.667928   1.000000
    4       -2.592353   1.000000
    5       -1.389506   0.515587
    6       -1.239441   0.029480
    7       -1.201323  -0.015102
    8       -1.069449  -0.023905
 
 -0.4615385E+00  0.3846154E+00  0.0000000E+00  0.9103323E-03
    1      -11.431623   1.000000
    2      -11.421956   1.000000
    3       -2.692827   1.000000
    4       -2.615970   1.000000
    5       -1.479224   0.851445
    6       -1.119381  -0.033927
    7       -0.824173  -0.000262
    8       -0.788818  -0.000102
 
 -0.3846154E+00  0.3846154E+00  0.0000000E+00  0.9103323E-03
    1      -11.461754   1.000000
    2      -11.451442   1.000000
    3       -2.590554   1.000000
    4       -2.513160   1.000000
    5       -1.567896   1.013152
    6       -1.176551  -0.029293
    7       -0.625796  -0.000001
    8       -0.587404  -0.000000
 
 -0.3076923E+00  0.3846154E+00  0.0000000E+00  0.9103323E-03
    1      -11.486517   1.000000
    2      -11.476066   1.000000
    3       -2.394779   1.000000
    4       -2.319321   1.000000
    5       -1.635558   1.035372
    6       -1.230094   0.015622
    7       -0.709929  -0.000010
    8       -0.676286  -0.000003
 
 -0.2307692E+00  0.3846154E+00  0.0000000E+00  0.9103323E-03
    1      -11.500217   1.000000
    2      -11.490166   1.000000
    3       -2.199864   1.000000
    4       -2.135866   1.000001
    5       -1.667263   1.031506
    6       -1.266720   0.082013
    7       -0.894091  -0.001390
    8       -0.874869  -0.000903
 
 -0.1538462E+00  0.3846154E+00  0.0000000E+00  0.9103323E-03
    1      -11.499666   1.000000
    2      -11.490591   1.000000
    3       -2.187251   1.000000
    4       -2.151238   1.000000
    5       -1.654682   1.033596
    6       -1.279728   0.113629
    7       -0.888805  -0.001237
    8       -0.880809  -0.001035
 
 -0.7692308E-01  0.3846154E+00  0.0000000E+00  0.9103323E-03
    1      -11.484898   1.000000
    2      -11.477335   1.000000
    3       -2.368218   1.000000
    4       -2.351121   1.000000
    5       -1.598256   1.030434
    6       -1.271648   0.093486
    7       -0.701756  -0.000007
    8       -0.686308  -0.000004
 
  0.0000000E+00  0.4615385E+00  0.0000000E+00  0.9103323E-03
    1      -11.417654   1.000000
    2      -11.415326   1.000000
    3       -2.772900   1.000000
    4       -2.764358   1.000000
    5       -1.329159   0.270577
    6       -1.229329   0.014576
    7       -0.676005  -0.000003
    8       -0.671970  -0.000003
 
  0.7692308E-01  0.4615385E+00  0.0000000E+00  0.9103323E-03
    1      -11.407172   1.000000
    2      -11.405629   1.000000
    3       -2.764183   1.000000
    4       -2.756060   1.000000
    5       -1.277937   0.109024
    6       -1.230848   0.016665
    7       -0.857741  -0.000604
    8       -0.835962  -0.000354
 
  0.1538462E+00  0.4615385E+00  0.0000000E+00  0.9103323E-03
    1      -11.400178   1.000000
    2      -11.396789   1.000000
    3       -2.637765   1.000000
    4       -2.628241   1.000000
    5       -1.299511   0.169776
    6       -1.233345   0.020213
    7       -1.207427  -0.009982
    8       -1.168420  -0.031960
 
  0.2307692E+00  0.4615385E+00  0.0000000E+00  0.9103323E-03
    1      -11.396948   1.000000
    2      -11.391501   1.000000
    3       -2.466916   1.000000
    4       -2.439746   1.000000
    5       -1.573903   1.017787
    6       -1.554972   1.000844
    7       -1.324904   0.255017
    8       -1.119282  -0.033914
 
  0.3076923E+00  0.4615385E+00  0.0000000E+00  0.9103323E-03
    1      -11.397893   1.000000
    2      -11.390696   1.000000
    3       -2.484250   1.000000
    4       -2.419012   1.000000
    5       -1.575575   1.018961
    6       -1.557557   1.003574
    7       -1.352710   0.362001
    8       -1.085376  -0.027552
 
  0.3846154E+00  0.4615385E+00  0.0000000E+00  0.9103323E-03
    1      -11.402934   1.000000
    2      -11.394421   1.000000
    3       -2.668091   1.000000
    4       -2.592523   1.000000
    5       -1.389449   0.515349
    6       -1.239303   0.029261
    7       -1.201192  -0.015204
    8       -1.069400  -0.023894
 
  0.4615385E+00  0.4615385E+00  0.0000000E+00  0.9103323E-03
    1      -11.411361   1.000000
    2      -11.401986   1.000000
    3       -2.795912   1.000000
    4       -2.718615   1.000000
    5       -1.418025   0.634325
    6       -1.077574  -0.025782
    7       -0.863544  -0.000694
    8       -0.827816  -0.000288
 
 -0.4615385E+00  0.4615385E+00  0.0000000E+00  0.9103323E-03
    1      -11.421655   1.000000
    2      -11.411900   1.000000
    3       -2.804612   1.000000
    4       -2.726957   1.000000
    5       -1.450384   0.758045
    6       -1.093734  -0.029374
    7       -0.692311  -0.000005
    8       -0.653221  -0.000001
 
 -0.3846154E+00  0.4615385E+00  0.0000000E+00  0.9103323E-03
    1      -11.431595   1.000000
    2      -11.421928   1.000000
    3       -2.692983   1.000000
    4       -2.616131   1.000000
    5       -1.479171   0.851292
    6       -1.119333  -0.033921
    7       -0.824018  -0.000261
    8       -0.788666  -0.000101
 
 -0.3076923E+00  0.4615385E+00  0.0000000E+00  0.9103323E-03
    1      -11.438628   1.000000
    2      -11.429545   1.000000
    3       -2.504441   1.000000
    4       -2.432764   1.000000
    5       -1.495345   0.895121
    6       -1.156944  -0.034350
    7       -1.105970  -0.031799
    8       -1.089166  -0.028390
 
 -0.2307692E+00  0.4615385E+00  0.0000000E+00  0.9103323E-03
    1      -11.440739   1.000000
    2      -11.432741   1.000000
    3       -2.380170   1.000000
    4       -2.330943   1.000000
    5       -1.489463   0.879935
    6       -1.278663   0.110882
    7       -1.267434   0.083637
    8       -1.165710  -0.032662
 
 -0.1538462E+00  0.4615385E+00  0.0000000E+00  0.9103323E-03
    1      -11.437168   1.000000
    2      -11.430738   1.000000
    3       -2.480856   1.000000
    4       -2.460568   1.000000
    5       -1.455685   0.776573
    6       -1.190981  -0.022239
    7       -1.113884  -0.033138
    8       -1.091942  -0.028992
 
 -0.7692308E-01  0.4615385E+00  0.0000000E+00  0.9103323E-03
    1      -11.428755   1.000000
    2      -11.424294   1.000000
    3       -2.662431   1.000000
    4       -2.652035   1.000000
    5       -1.399492   0.557697
    6       -1.209053  -0.008498
    7       -0.817278  -0.000219
    8       -0.797635  -0.000129
 
  0.0000000E+00  0.0000000E+00  0.7692308E-01  0.9103323E-03
    1      -11.748927   1.000000
    2      -11.735212   1.000000
    3       -2.258067   1.000000
    4       -1.724811   1.018768
    5       -0.007587  -0.000000
    6        0.001888  -0.000000
    7        0.011916  -0.000000
    8        0.021252  -0.000000
 
  0.7692308E-01  0.0000000E+00  0.7692308E-01  0.9103323E-03
    1      -11.731363   1.000000
    2      -11.717978   1.000000
    3       -2.219879   1.000000
    4       -1.695437   1.025467
    5       -0.300597  -0.000000
    6       -0.292243  -0.000000
    7       -0.040019  -0.000000
    8       -0.038745  -0.000000
 
  0.1538462E+00  0.0000000E+00  0.7692308E-01  0.9103323E-03
    1      -11.681797   1.000000
    2      -11.669393   1.000000
    3       -2.109015   1.000002
    4       -1.612785   1.034054
    5       -0.933895  -0.003166
    6       -0.909361  -0.001928
    7       -0.164603  -0.000000
    8       -0.162306  -0.000000
 
  0.2307692E+00  0.0000000E+00  0.7692308E-01  0.9103323E-03
    1      -11.609463   1.000000
    2      -11.598714   1.000000
    3       -1.939026   1.000325
    4       -1.594052   1.028887
    5       -1.581987   1.023021
    6       -1.468552   0.819062
    7       -0.326961  -0.000000
    8       -0.323907  -0.000000
 
  0.3076923E+00  0.0000000E+00  0.7692308E-01  0.9103323E-03
    1      -11.529146   1.000000
    2      -11.520737   1.000000
    3       -2.156682   1.000000
    4       -2.139952   1.000001
    5       -1.717168   1.020469
    6       -1.352093   0.359510
    7       -0.485664  -0.000000
    8       -0.482105  -0.000000
 
  0.3846154E+00  0.0000000E+00  0.7692308E-01  0.9103323E-03
    1      -11.459288   1.000000
    2      -11.453822   1.000000
    3       -2.560448   1.000000
    4       -2.549672   1.000000
    5       -1.500680   0.908146
    6       -1.252961   0.053212
    7       -0.608387  -0.000000
    8       -0.604529  -0.000000
 