    2    2    1    1
  0.3538312E+02  0.4745822E-09  0.4745822E-09  0.4745822E-09  0.5000000E-15
  1.000000000000000E-004
  CAR 
 Bi SCF                                  
     10    200     16
 
  0.0000000E+00  0.5000000E+00 -0.5000000E+00  0.5000000E-02
    1       -5.974899   1.000000
    2       -5.974899   1.000000
    3       -4.160286   1.000000
    4       -4.160286   1.000000
    5        0.440878   1.000000
    6        0.440878   1.000000
    7        1.562045   1.000000
    8        1.562045   1.000000
    9        2.798823   1.000000
   10        2.798823   1.000000
   11        7.484288  -0.000000
   12        7.484288  -0.000000
   13        9.413447  -0.000000
   14        9.413447  -0.000000
   15       11.295832   0.000000
   16       11.295833   0.000000
 
  0.0000000E+00  0.4871795E+00 -0.4871795E+00  0.5000000E-02
    1       -5.970622   1.000000
    2       -5.970622   1.000000
    3       -4.168912   1.000000
    4       -4.168912   1.000000
    5        0.442809   1.000000
    6        0.442809   1.000000
    7        1.568001   1.000000
    8        1.568001   1.000000
    9        2.802164   1.000000
   10        2.802164   1.000000
   11        7.500973  -0.000000
   12        7.500973  -0.000000
   13        9.392932  -0.000000
   14        9.392932  -0.000000
   15       11.254604   0.000000
   16       11.254604   0.000000
 
  0.0000000E+00  0.4743590E+00 -0.4743590E+00  0.5000000E-02
    1       -5.957801   1.000000
    2       -5.957801   1.000000
    3       -4.194641   1.000000
    4       -4.194641   1.000000
    5        0.448749   1.000000
    6        0.448749   1.000000
    7        1.585798   1.000000
    8        1.585798   1.000000
    9        2.812313   1.000000
   10        2.812313   1.000000
   11        7.549870  -0.000000
   12        7.549870  -0.000000
   13        9.333768  -0.000000
   14        9.333768  -0.000000
   15       11.139002   0.000000
   16       11.139002   0.000000
 
  0.0000000E+00  0.4615385E+00 -0.4615385E+00  0.5000000E-02
    1       -5.936449   1.000000
    2       -5.936449   1.000000
    3       -4.237053   1.000000
    4       -4.237053   1.000000
    5        0.459110   1.000000
    6        0.459110   1.000000
    7        1.615181   1.000000
    8        1.615181   1.000000
    9        2.829573   1.000000
   10        2.829573   1.000000
   11        7.627146  -0.000000
   12        7.627146  -0.000000
   13        9.242980  -0.000000
   14        9.242980  -0.000000
   15       10.966288   0.000000
   16       10.966288   0.000000
 
  0.0000000E+00  0.4487179E+00 -0.4487179E+00  0.5000000E-02
    1       -5.906606   1.000000
    2       -5.906606   1.000000
    3       -4.295476   1.000000
    4       -4.295476   1.000000
    5        0.474501   1.000000
    6        0.474501   1.000000
    7        1.655755   1.000000
    8        1.655755   1.000000
    9        2.854366   1.000000
   10        2.854366   1.000000
   11        7.724927  -0.000000
   12        7.724927  -0.000000
   13        9.132428  -0.000000
   14        9.132428  -0.000000
   15       10.754852   0.000000
   16       10.754852   0.000000
 
  0.0000000E+00  0.4358974E+00 -0.4358974E+00  0.5000000E-02
    1       -5.868320   1.000000
    2       -5.868320   1.000000
    3       -4.368998   1.000000
    4       -4.368998   1.000000
    5        0.495639   1.000000
    6        0.495639   1.000000
    7        1.707058   1.000000
    8        1.707058   1.000000
    9        2.887206   1.000000
   10        2.887206   1.000000
   11        7.827966  -0.000000
   12        7.827966  -0.000000
   13        9.020666  -0.000000
   14        9.020666  -0.000000
   15       10.520647  -0.000000
   16       10.520647  -0.000000
 
  0.0000000E+00  0.4230769E+00 -0.4230769E+00  0.5000000E-02
    1       -5.821652   1.000000
    2       -5.821652   1.000000
    3       -4.456472   1.000000
    4       -4.456472   1.000000
    5        0.523246   1.000000
    6        0.523247   1.000000
    7        1.768602   1.000000
    8        1.768602   1.000000
    9        2.928615   1.000000
   10        2.928615   1.000000
   11        7.907707  -0.000000
   12        7.907707  -0.000000
   13        8.936937  -0.000000
   14        8.936937  -0.000000
   15       10.277525  -0.000000
   16       10.277525  -0.000000
 
  0.0000000E+00  0.4102564E+00 -0.4102564E+00  0.5000000E-02
    1       -5.766682   1.000000
    2       -5.766682   1.000000
    3       -4.556585   1.000000
    4       -4.556585   1.000000
    5        0.557979   1.000000
    6        0.557979   1.000000
    7        1.839892   1.000000
    8        1.839892   1.000000
    9        2.979040   1.000000
   10        2.979040   1.000000
   11        7.923225  -0.000000
   12        7.923225  -0.000000
   13        8.916652  -0.000000
   14        8.916652  -0.000000
   15       10.041330  -0.000000
   16       10.041330  -0.000000
 
  0.0000000E+00  0.3974359E+00 -0.3974359E+00  0.5000000E-02
    1       -5.703514   1.000000
    2       -5.703514   1.000000
    3       -4.667922   1.000000
    4       -4.667922   1.000000
    5        0.600365   1.000000
    6        0.600365   1.000000
    7        1.920451   1.000000
    8        1.920451   1.000000
    9        3.038816   1.000000
   10        3.038816   1.000000
   11        7.852412  -0.000000
   12        7.852412  -0.000000
   13        8.959234  -0.000000
   14        8.959234  -0.000000
   15        9.841459  -0.000000
   16        9.841459  -0.000000
 
  0.0000000E+00  0.3846154E+00 -0.3846154E+00  0.5000000E-02
    1       -5.632277   1.000000
    2       -5.632277   1.000000
    3       -4.788957   1.000000
    4       -4.788957   1.000000
    5        0.650765   1.000000
    6        0.650765   1.000000
    7        2.009856   1.000000
    8        2.009856   1.000000
    9        3.108167   1.000000
   10        3.108167   1.000000
   11        7.714647  -0.000000
   12        7.714647  -0.000000
   13        8.979493  -0.000000
   14        8.979493  -0.000000
   15        9.747168  -0.000000
   16        9.747168  -0.000000
 
  0.0000000E+00  0.3717949E+00 -0.3717949E+00  0.5000000E-02
    1       -5.553122   1.000000
    2       -5.553122   1.000000
    3       -4.918116   1.000000
    4       -4.918116   1.000000
    5        0.709390   1.000000
    6        0.709390   1.000000
    7        2.107707   1.000000
    8        2.107707   1.000000
    9        3.187146   1.000000
   10        3.187146   1.000000
   11        7.539720  -0.000000
   12        7.539721  -0.000000
   13        8.876906  -0.000000
   14        8.876906  -0.000000
   15        9.828674  -0.000000
   16        9.828674  -0.000000
 
  0.0000000E+00  0.3589744E+00 -0.3589744E+00  0.5000000E-02
    1       -5.466286   1.000000
    2       -5.466286   1.000000
    3       -5.053790   1.000000
    4       -5.053790   1.000000
    5        0.776281   1.000000
    6        0.776281   1.000000
    7        2.213607   1.000000
    8        2.213607   1.000000
    9        3.275616   1.000000
   10        3.275616   1.000000
   11        7.347123  -0.000000
   12        7.347123  -0.000000
   13        8.681018  -0.000000
   14        8.681018  -0.000000
   15       10.028422  -0.000000
   16       10.028422  -0.000000
 
  0.0000000E+00  0.3461538E+00 -0.3461538E+00  0.5000000E-02
    1       -5.372468   1.000000
    2       -5.372468   1.000000
    3       -5.193984   1.000000
    4       -5.193984   1.000000
    5        0.851315   1.000000
    6        0.851315   1.000000
    7        2.327192   1.000000
    8        2.327192   1.000000
    9        3.373265   1.000000
   10        3.373265   1.000000
   11        7.147736  -0.000000
   12        7.147736  -0.000000
   13        8.450476  -0.000000
   14        8.450476  -0.000000
   15       10.244043  -0.000000
   16       10.244043  -0.000000
 
  0.0000000E+00  0.3333333E+00 -0.3333333E+00  0.5000000E-02
    1       -5.343899   1.000000
    2       -5.343899   1.000000
    3       -5.265236   1.000000
    4       -5.265236   1.000000
    5        0.934236   1.000000
    6        0.934236   1.000000
    7        2.448094   1.000000
    8        2.448094   1.000000
    9        3.479559   1.000000
   10        3.479559   1.000000
   11        6.948065  -0.000000
   12        6.948065  -0.000000
   13        8.210217  -0.000000
   14        8.210217  -0.000000
   15       10.358258  -0.000000
   16       10.358258  -0.000000
 
  0.0000000E+00  0.3205128E+00 -0.3205128E+00  0.5000000E-02
    1       -5.488277   1.000000
    2       -5.488277   1.000000
    3       -5.158745   1.000000
    4       -5.158745   1.000000
    5        1.024646   1.000000
    6        1.024646   1.000000
    7        2.575917   1.000000
    8        2.575917   1.000000
    9        3.593663   1.000000
   10        3.593663   1.000000
   11        6.752526  -0.000000
   12        6.752526  -0.000000
   13        7.969905  -0.000000
   14        7.969905  -0.000000
   15       10.323293  -0.000000
   16       10.323293  -0.000000
 
  0.0000000E+00  0.3076923E+00 -0.3076923E+00  0.5000000E-02
    1       -5.636222   1.000000
    2       -5.636222   1.000000
    3       -5.042951   1.000000
    4       -5.042951   1.000000
    5        1.122018   1.000000
    6        1.122018   1.000000
    7        2.710212   1.000000
    8        2.710212   1.000000
    9        3.714349   1.000000
   10        3.714349   1.000000
   11        6.564665  -0.000000
   12        6.564665  -0.000000
   13        7.734080  -0.000000
   14        7.734080  -0.000000
   15       10.215868  -0.000000
   16       10.215868  -0.000000
 
  0.0000000E+00  0.2948718E+00 -0.2948718E+00  0.5000000E-02
    1       -5.784403   1.000000
    2       -5.784403   1.000000
    3       -4.920365   1.000000
    4       -4.920365   1.000000
    5        1.225698   1.000000
    6        1.225698   1.000000
    7        2.850480   1.000000
    8        2.850480   1.000000
    9        3.839861   1.000000
   10        3.839861   1.000000
   11        6.387825  -0.000000
   12        6.387825  -0.000000
   13        7.505359  -0.000000
   14        7.505359  -0.000000
   15       10.083884  -0.000000
   16       10.083884  -0.000000
 
  0.0000000E+00  0.2820513E+00 -0.2820513E+00  0.5000000E-02
    1       -5.931620   1.000000
    2       -5.931620   1.000000
    3       -4.791516   1.000000
    4       -4.791516   1.000000
    5        1.334883   1.000000
    6        1.334883   1.000000
    7        2.996115   1.000000
    8        2.996115   1.000000
    9        3.967630   1.000000
   10        3.967630   1.000000
   11        6.225694  -0.000000
   12        6.225694  -0.000000
   13        7.285565  -0.000000
   14        7.285565  -0.000000
   15        9.943583  -0.000000
   16        9.943583  -0.000000
 
  0.0000000E+00  0.2692308E+00 -0.2692308E+00  0.5000000E-02
    1       -6.076906   1.000000
    2       -6.076906   1.000000
    3       -4.656858   1.000000
    4       -4.656858   1.000000
    5        1.448628   1.000000
    6        1.448628   1.000000
    7        3.146353   1.000000
    8        3.146354   1.000000
    9        4.093907   1.000000
   10        4.093907   1.000000
   11        6.082851  -0.000000
   12        6.082851  -0.000000
   13        7.076222  -0.000000
   14        7.076222  -0.000000
   15        9.801400  -0.000000
   16        9.801400  -0.000000
 
  0.0000000E+00  0.2564103E+00 -0.2564103E+00  0.5000000E-02
    1       -6.219435   1.000000
    2       -6.219435   1.000000
    3       -4.516872   1.000000
    4       -4.516872   1.000000
    5        1.565822   1.000000
    6        1.565822   1.000000
    7        3.300215   1.000000
    8        3.300215   1.000000
    9        4.213305   1.000000
   10        4.213305   1.000000
   11        5.965303  -0.000000
   12        5.965303  -0.000000
   13        6.878813  -0.000000
   14        6.878813  -0.000000
   15        9.660608  -0.000000
   16        9.660608  -0.000000
 
  0.0000000E+00  0.2435897E+00 -0.2435897E+00  0.5000000E-02
    1       -6.358430   1.000000
    2       -6.358430   1.000000
    3       -4.372105   1.000000
    4       -4.372105   1.000000
    5        1.685145   1.000000
    6        1.685145   1.000000
    7        3.456391   1.000000
    8        3.456391   1.000000
    9        4.318540   1.000000
   10        4.318540   1.000000
   11        5.880736  -0.000009
   12        5.880736  -0.000009
   13        6.695058  -0.000000
   14        6.695058  -0.000000
   15        9.523256  -0.000000
   16        9.523256  -0.000000
 
  0.0000000E+00  0.2307692E+00 -0.2307692E+00  0.5000000E-02
    1       -6.493222   1.000000
    2       -6.493222   1.000000
    3       -4.223168   1.000000
    4       -4.223168   1.000000
    5        1.805038   1.000000
    6        1.805038   1.000000
    7        3.613065   1.000000
    8        3.613065   1.000000
    9        4.401294   1.000000
   10        4.401294   1.000000
   11        5.837479  -0.000033
   12        5.837479  -0.000033
   13        6.527367  -0.000000
   14        6.527367  -0.000000
   15        9.390846  -0.000000
   16        9.390846  -0.000000
 
  0.0000000E+00  0.2179487E+00 -0.2179487E+00  0.5000000E-02
    1       -6.623241   1.000000
    2       -6.623241   1.000000
    3       -4.070757   1.000000
    4       -4.070757   1.000000
    5        1.923667   1.000000
    6        1.923667   1.000000
    7        3.767614   1.000000
    8        3.767614   1.000000
    9        4.455398   1.000001
   10        4.455398   1.000001
   11        5.840489  -0.000030
   12        5.840490  -0.000030
   13        6.380029  -0.000000
   14        6.380030  -0.000000
   15        9.264624  -0.000000
   16        9.264624  -0.000000
 
  0.0000000E+00  0.2051282E+00 -0.2051282E+00  0.5000000E-02
    1       -6.747958   1.000000
    2       -6.747958   1.000000
    3       -3.915668   1.000000
    4       -3.915668   1.000000
    5        2.038892   1.000000
    6        2.038892   1.000000
    7        3.916003   1.000000
    8        3.916003   1.000000
    9        4.481584   1.000002
   10        4.481584   1.000002
   11        5.882752  -0.000008
   12        5.882752  -0.000008
   13        6.263663  -0.000000
   14        6.263663  -0.000000
   15        9.145708  -0.000000
   16        9.145708  -0.000000
 
  0.0000000E+00  0.1923077E+00 -0.1923077E+00  0.5000000E-02
    1       -6.866901   1.000000
    2       -6.866901   1.000000
    3       -3.758789   1.000000
    4       -3.758789   1.000000
    5        2.148277   1.000000
    6        2.148277   1.000000
    7        4.051620   1.000000
    8        4.051620   1.000000
    9        4.489780   1.000003
   10        4.489780   1.000003
   11        5.926897  -0.000002
   12        5.926897  -0.000002
   13        6.212427  -0.000000
   14        6.212427  -0.000000
   15        9.035165  -0.000000
   16        9.035165  -0.000000
 
  0.0000000E+00  0.1794872E+00 -0.1794872E+00  0.5000000E-02
    1       -6.979670   1.000000
    2       -6.979670   1.000000
    3       -3.601098   1.000000
    4       -3.601098   1.000000
    5        2.249147   1.000000
    6        2.249147   1.000000
    7        4.163384   1.000000
    8        4.163384   1.000000
    9        4.497261   1.000004
   10        4.497261   1.000004
   11        5.915354  -0.000003
   12        5.915354  -0.000003
   13        6.277492  -0.000000
   14        6.277492  -0.000000
   15        8.934087  -0.000000
   16        8.934087  -0.000000
 
  0.0000000E+00  0.1666667E+00 -0.1666667E+00  0.5000000E-02
    1       -7.085940   1.000000
    2       -7.085940   1.000000
    3       -3.443710   1.000000
    4       -3.443710   1.000000
    5        2.338732   1.000000
    6        2.338732   1.000000
    7        4.237418   1.000000
    8        4.237418   1.000000
    9        4.522605   1.000009
   10        4.522605   1.000009
   11        5.877177  -0.000010
   12        5.877177  -0.000010
   13        6.424382  -0.000000
   14        6.424382  -0.000000
   15        8.843605  -0.000000
   16        8.843605  -0.000000
 
  0.0000000E+00  0.1538462E+00 -0.1538462E+00  0.5000000E-02
    1       -7.185369   1.000000
    2       -7.185369   1.000000
    3       -3.287865   1.000000
    4       -3.287865   1.000000
    5        2.414473   1.000000
    6        2.414473   1.000000
    7        4.273710   1.000000
    8        4.273710   1.000000
    9        4.567590   1.000035
   10        4.567590   1.000035
   11        5.854581  -0.000020
   12        5.854581  -0.000020
   13        6.607461  -0.000000
   14        6.607461  -0.000000
   15        8.764896  -0.000000
   16        8.764896  -0.000000
 
  0.0000000E+00  0.1410256E+00 -0.1410256E+00  0.5000000E-02
    1       -7.277682   1.000000
    2       -7.277682   1.000000
    3       -3.134940   1.000000
    4       -3.134940   1.000000
    5        2.474453   1.000000
    6        2.474453   1.000000
    7        4.292103   1.000000
    8        4.292103   1.000000
    9        4.612768   1.000128
   10        4.612768   1.000128
   11        5.861469  -0.000016
   12        5.861469  -0.000016
   13        6.809405  -0.000000
   14        6.809405  -0.000000
   15        8.699169  -0.000000
   16        8.699169  -0.000000
 
  0.0000000E+00  0.1282051E+00 -0.1282051E+00  0.5000000E-02
    1       -7.362662   1.000000
    2       -7.362662   1.000000
    3       -2.986444   1.000000
    4       -2.986444   1.000000
    5        2.517847   1.000000
    6        2.517847   1.000000
    7        4.309557   1.000000
    8        4.309557   1.000000
    9        4.642876   1.000283
   10        4.642876   1.000283
   11        5.899271  -0.000005
   12        5.899271  -0.000005
   13        7.022149  -0.000000
   14        7.022149  -0.000000
   15        8.647580  -0.000000
   16        8.647580  -0.000000
 
  0.0000000E+00  0.1153846E+00 -0.1153846E+00  0.5000000E-02
    1       -7.440100   1.000000
    2       -7.440100   1.000000
    3       -2.843992   1.000000
    4       -2.843992   1.000000
    5        2.545231   1.000000
    6        2.545231   1.000000
    7        4.332932   1.000000
    8        4.332932   1.000000
    9        4.655236   1.000388
   10        4.655236   1.000388
   11        5.961949  -0.000001
   12        5.961949  -0.000001
   13        7.240447  -0.000000
   14        7.240448  -0.000000
   15        8.611065  -0.000000
   16        8.611065  -0.000000
 
  0.0000000E+00  0.1025641E+00 -0.1025641E+00  0.5000000E-02
    1       -7.509805   1.000000
    2       -7.509805   1.000000
    3       -2.709333   1.000000
    4       -2.709333   1.000000
    5        2.558498   1.000000
    6        2.558498   1.000000
    7        4.362857   1.000000
    8        4.362857   1.000000
    9        4.654378   1.000379
   10        4.654378   1.000379
   11        6.039544  -0.000000
   12        6.039544  -0.000000
   13        7.459993  -0.000000
   14        7.459994  -0.000000
   15        8.590078  -0.000000
   16        8.590078  -0.000000
 
  0.0000000E+00  0.8974359E-01 -0.8974359E-01  0.5000000E-02
    1       -7.571627   1.000000
    2       -7.571627   1.000000
    3       -2.584297   1.000000
    4       -2.584297   1.000000
    5        2.560485   1.000000
    6        2.560485   1.000000
    7        4.396582   1.000000
    8        4.396582   1.000000
    9        4.647018   1.000315
   10        4.647018   1.000315
   11        6.121745  -0.000000
   12        6.121745  -0.000000
   13        7.676542  -0.000000
   14        7.676542  -0.000000
   15        8.584331  -0.000000
   16        8.584331  -0.000000
 
  0.0000000E+00  0.7692308E-01 -0.7692308E-01  0.5000000E-02
    1       -7.625470   1.000000
    2       -7.625470   1.000000
    3       -2.470783   1.000000
    4       -2.470783   1.000000
    5        2.554430   1.000000
    6        2.554430   1.000000
    7        4.429390   1.000000
    8        4.429390   1.000000
    9        4.639724   1.000261
   10        4.639724   1.000261
   11        6.200099  -0.000000
   12        6.200099  -0.000000
   13        7.885133  -0.000000
   14        7.885133  -0.000000
   15        8.592769  -0.000000
   16        8.592769  -0.000000
 
  0.0000000E+00  0.6410256E-01 -0.6410256E-01  0.5000000E-02
    1       -7.671194   1.000000
    2       -7.671194   1.000000
    3       -2.370675   1.000000
    4       -2.370675   1.000000
    5        2.543540   1.000000
    6        2.543540   1.000000
    7        4.455785   1.000001
    8        4.455785   1.000001
    9        4.638107   1.000251
   10        4.638107   1.000251
   11        6.268839  -0.000000
   12        6.268839  -0.000000
   13        8.078944  -0.000000
   14        8.078944  -0.000000
   15        8.614375  -0.000000
   16        8.614375  -0.000000
 
  0.0000000E+00  0.5128205E-01 -0.5128205E-01  0.5000000E-02
    1       -7.708711   1.000000
    2       -7.708711   1.000000
    3       -2.285785   1.000000
    4       -2.285785   1.000000
    5        2.530691   1.000000
    6        2.530691   1.000000
    7        4.471922   1.000002
    8        4.471922   1.000002
    9        4.645095   1.000300
   10        4.645095   1.000300
   11        6.324828  -0.000000
   12        6.324828  -0.000000
   13        8.247155  -0.000000
   14        8.247155  -0.000000
   15        8.650219  -0.000000
   16        8.650219  -0.000000
 
  0.0000000E+00  0.3846154E-01 -0.3846154E-01  0.5000000E-02
    1       -7.737967   1.000000
    2       -7.737967   1.000000
    3       -2.217777   1.000000
    4       -2.217777   1.000000
    5        2.518259   1.000000
    6        2.518259   1.000000
    7        4.478536   1.000002
    8        4.478536   1.000002
    9        4.658553   1.000421
   10        4.658553   1.000421
   11        6.367087  -0.000000
   12        6.367087  -0.000000
   13        8.374200  -0.000000
   14        8.374200  -0.000000
   15        8.704418  -0.000000
   16        8.704418  -0.000000
 
  0.0000000E+00  0.2564103E-01 -0.2564103E-01  0.5000000E-02
    1       -7.758909   1.000000
    2       -7.758909   1.000000
    3       -2.168084   1.000000
    4       -2.168084   1.000000
    5        2.508082   1.000000
    6        2.508082   1.000000
    7        4.479686   1.000002
    8        4.479686   1.000002
    9        4.672977   1.000598
   10        4.672977   1.000598
   11        6.396057  -0.000000
   12        6.396057  -0.000000
   13        8.450607  -0.000000
   14        8.450607  -0.000000
   15        8.773407  -0.000000
   16        8.773407  -0.000000
 
  0.0000000E+00  0.1282051E-01 -0.1282051E-01  0.5000000E-02
    1       -7.771483   1.000000
    2       -7.771483   1.000000
    3       -2.137811   1.000000
    4       -2.137811   1.000000
    5        2.501444   1.000000
    6        2.501444   1.000000
    7        4.479042   1.000002
    8        4.479042   1.000002
    9        4.683457   1.000767
   10        4.683457   1.000767
   11        6.412789  -0.000000
   12        6.412789  -0.000000
   13        8.486492  -0.000000
   14        8.486492  -0.000000
   15        8.833046  -0.000000
   16        8.833046  -0.000000
 
  0.0000000E+00  0.0000000E+00  0.0000000E+00  0.5000000E-02
    1       -7.775665   1.000000
    2       -7.775665   1.000000
    3       -2.127641   1.000000
    4       -2.127641   1.000000
    5        2.499145   1.000000
    6        2.499145   1.000000
    7        4.478628   1.000002
    8        4.478628   1.000002
    9        4.687240   1.000838
   10        4.687240   1.000838
   11        6.418242  -0.000000
   12        6.418242  -0.000000
   13        8.496662  -0.000000
   14        8.496662  -0.000000
   15        8.856398  -0.000000
   16        8.856399  -0.000000
 
  0.0000000E+00  0.0000000E+00  0.0000000E+00  0.5000000E-02
    1       -7.775665   1.000000
    2       -7.775665   1.000000
    3       -2.127641   1.000000
    4       -2.127641   1.000000
    5        2.499145   1.000000
    6        2.499145   1.000000
    7        4.478628   1.000002
    8        4.478628   1.000002
    9        4.687240   1.000838
   10        4.687240   1.000838
   11        6.418242  -0.000000
   12        6.418242  -0.000000
   13        8.496662  -0.000000
   14        8.496662  -0.000000
   15        8.856398  -0.000000
   16        8.856399  -0.000000
 
  0.0000000E+00  0.1282051E-01  0.0000000E+00  0.5000000E-02
    1       -7.774137   1.000000
    2       -7.774137   1.000000
    3       -2.131462   1.000000
    4       -2.131462   1.000000
    5        2.500076   1.000000
    6        2.500076   1.000000
    7        4.478815   1.000002
    8        4.478815   1.000002
    9        4.686003   1.000814
   10        4.686003   1.000814
   11        6.416155  -0.000000
   12        6.416155  -0.000000
   13        8.492859  -0.000000
   14        8.492859  -0.000000
   15        8.847804  -0.000000
   16        8.847804  -0.000000
 
  0.0000000E+00  0.2564103E-01  0.0000000E+00  0.5000000E-02
    1       -7.769534   1.000000
    2       -7.769534   1.000000
    3       -2.142899   1.000000
    4       -2.142899   1.000000
    5        2.502858   1.000000
    6        2.502858   1.000000
    7        4.479346   1.000002
    8        4.479346   1.000002
    9        4.682343   1.000747
   10        4.682343   1.000747
   11        6.409884  -0.000000
   12        6.409884  -0.000000
   13        8.481321  -0.000000
   14        8.481321  -0.000000
   15        8.822687  -0.000000
   16        8.822688  -0.000000
 
  0.0000000E+00  0.3846154E-01  0.0000000E+00  0.5000000E-02
    1       -7.761857   1.000000
    2       -7.761857   1.000000
    3       -2.161874   1.000000
    4       -2.161874   1.000000
    5        2.507457   1.000000
    6        2.507457   1.000000
    7        4.480128   1.000002
    8        4.480128   1.000002
    9        4.676403   1.000649
   10        4.676403   1.000649
   11        6.399399  -0.000000
   12        6.399399  -0.000000
   13        8.461650  -0.000000
   14        8.461650  -0.000000
   15        8.782939  -0.000000
   16        8.782940  -0.000000
 
  0.0000000E+00  0.5128205E-01  0.0000000E+00  0.5000000E-02
    1       -7.751111   1.000000
    2       -7.751111   1.000000
    3       -2.188260   1.000000
    4       -2.188260   1.000000
    5        2.513813   1.000000
    6        2.513813   1.000000
    7        4.480985   1.000002
    8        4.480985   1.000002
    9        4.668430   1.000536
   10        4.668430   1.000536
   11        6.384661  -0.000000
   12        6.384661  -0.000000
   13        8.433151  -0.000000
   14        8.433151  -0.000000
   15        8.731364  -0.000000
   16        8.731364  -0.000000
 
  0.0000000E+00  0.6410256E-01  0.0000000E+00  0.5000000E-02
    1       -7.737301   1.000000
    2       -7.737301   1.000000
    3       -2.221879   1.000000
    4       -2.221879   1.000000
    5        2.521866   1.000000
    6        2.521866   1.000000
    7        4.481647   1.000002
    8        4.481647   1.000002
    9        4.658832   1.000424
   10        4.658832   1.000424
   11        6.365639  -0.000000
   12        6.365639  -0.000000
   13        8.394857  -0.000000
   14        8.394857  -0.000000
   15        8.671295  -0.000000
   16        8.671295  -0.000000
 
  0.0000000E+00  0.7692308E-01  0.0000000E+00  0.5000000E-02
    1       -7.720439   1.000000
    2       -7.720439   1.000000
    3       -2.262512   1.000000
    4       -2.262512   1.000000
    5        2.531534   1.000000
    6        2.531534   1.000000
    7        4.481696   1.000002
    8        4.481696   1.000002
    9        4.648170   1.000324
   10        4.648170   1.000324
   11        6.342332  -0.000000
   12        6.342332  -0.000000
   13        8.345707  -0.000000
   14        8.345707  -0.000000
   15        8.606137  -0.000000
   16        8.606137  -0.000000
 
  0.0000000E+00  0.8974359E-01  0.0000000E+00  0.5000000E-02
    1       -7.700544   1.000000
    2       -7.700544   1.000000
    3       -2.309903   1.000000
    4       -2.309903   1.000000
    5        2.542727   1.000000
    6        2.542727   1.000000
    7        4.480521   1.000002
    8        4.480521   1.000002
    9        4.637217   1.000245
   10        4.637217   1.000245
   11        6.314771  -0.000000
   12        6.314771  -0.000000
   13        8.284984  -0.000000
   14        8.284984  -0.000000
   15        8.538711  -0.000000
   16        8.538711  -0.000000
 
  0.0000000E+00  0.1025641E+00  0.0000000E+00  0.5000000E-02
    1       -7.677610   1.000000
    2       -7.677610   1.000000
    3       -2.363764   1.000000
    4       -2.363764   1.000000
    5        2.555346   1.000000
    6        2.555346   1.000000
    7        4.477295   1.000002
    8        4.477295   1.000002
    9        4.626972   1.000187
   10        4.626972   1.000187
   11        6.283056  -0.000000
   12        6.283056  -0.000000
   13        8.212932  -0.000000
   14        8.212932  -0.000000
   15        8.470625  -0.000000
   16        8.470626  -0.000000
 
  0.0000000E+00  0.1153846E+00  0.0000000E+00  0.5000000E-02
    1       -7.651650   1.000000
    2       -7.651650   1.000000
    3       -2.423785   1.000000
    4       -2.423785   1.000000
    5        2.569291   1.000000
    6        2.569291   1.000000
    7        4.471054   1.000002
    8        4.471054   1.000002
    9        4.618566   1.000149
   10        4.618566   1.000149
   11        6.247351  -0.000000
   12        6.247352  -0.000000
   13        8.130965  -0.000000
   14        8.130965  -0.000000
   15        8.402060  -0.000000
   16        8.402060  -0.000000
 
  0.0000000E+00  0.1282051E+00  0.0000000E+00  0.5000000E-02
    1       -7.622676   1.000000
    2       -7.622676   1.000000
    3       -2.489633   1.000000
    4       -2.489633   1.000000
    5        2.584466   1.000000