    1    1    1    1
  0.1181041E+02  0.2556191E-09  0.2556191E-09  0.2556191E-09  0.5000000E-15
  1.000000000000000E-004
  CAR 
 Cu SCF                                  
     11    280      9
 
  0.5000000E+00  0.0000000E+00  0.5000000E+00  0.3571429E-02
    1        2.693802   1.000000
    2        3.160887   1.000000
    3        5.911911   1.000000
    4        6.085765   1.000000
    5        6.085765   1.000000
    6        9.082930  -0.000000
    7       14.692789   0.000000
    8       20.666410   0.000000
    9       20.666442   0.000000
 
  0.5000000E+00  0.6410256E-02  0.5064103E+00  0.3571429E-02
    1        2.694744   1.000000
    2        3.161447   1.000000
    3        5.911212   1.000000
    4        6.081975   1.000000
    5        6.085766   1.000000
    6        9.088510  -0.000000
    7       14.693508   0.000000
    8       20.651227   0.000000
    9       20.657184   0.000000
 
  0.5000000E+00  0.1282051E-01  0.5128205E+00  0.3571429E-02
    1        2.697575   1.000000
    2        3.163138   1.000000
    3        5.909126   1.000000
    4        6.070719   1.000000
    5        6.085773   1.000000
    6        9.105161  -0.000000
    7       14.695669   0.000000
    8       20.606388   0.000000
    9       20.629752   0.000000
 
  0.5000000E+00  0.1923077E-01  0.5192308E+00  0.3571429E-02
    1        2.702268   1.000000
    2        3.165942   1.000000
    3        5.905635   1.000000
    4        6.052191   1.000000
    5        6.085778   1.000000
    6        9.132632  -0.000000
    7       14.699275   0.000000
    8       20.533830   0.000000
    9       20.584751   0.000000
 
  0.5000000E+00  0.2564103E-01  0.5256410E+00  0.3571429E-02
    1        2.708825   1.000000
    2        3.169877   1.000000
    3        5.900759   1.000000
    4        6.026819   1.000000
    5        6.085805   1.000000
    6        9.170526  -0.000000
    7       14.704335   0.000000
    8       20.436392   0.000000
    9       20.523213   0.000000
 
  0.5000000E+00  0.3205128E-01  0.5320513E+00  0.3571429E-02
    1        2.717211   1.000000
    2        3.174927   1.000000
    3        5.894502   1.000000
    4        5.995103   1.000000
    5        6.085815   1.000000
    6        9.218333  -0.000000
    7       14.710859   0.000000
    8       20.317346   0.000000
    9       20.446443   0.000000
 
  0.5000000E+00  0.3846154E-01  0.5384615E+00  0.3571429E-02
    1        2.727404   1.000000
    2        3.181103   1.000000
    3        5.886881   1.000000
    4        5.957628   1.000000
    5        6.085828   1.000000
    6        9.275469  -0.000000
    7       14.718863   0.000000
    8       20.180042   0.000000
    9       20.355942   0.000000
 
  0.5000000E+00  0.4487179E-01  0.5448718E+00  0.3571429E-02
    1        2.739372   1.000000
    2        3.188407   1.000000
    3        5.877911   1.000000
    4        5.915015   1.000000
    5        6.085843   1.000000
    6        9.341308  -0.000000
    7       14.728366   0.000000
    8       20.027620   0.000000
    9       20.253308   0.000000
 
  0.5000000E+00  0.5128205E-01  0.5512821E+00  0.3571429E-02
    1        2.753073   1.000000
    2        3.196842   1.000000
    3        5.867616   1.000000
    4        5.867901   1.000000
    5        6.085860   1.000000
    6        9.415216  -0.000000
    7       14.739389   0.000000
    8       19.862874   0.000000
    9       20.140162   0.000000
 
  0.5000000E+00  0.5769231E-01  0.5576923E+00  0.3571429E-02
    1        2.768462   1.000000
    2        3.206413   1.000000
    3        5.816901   1.000000
    4        5.856020   1.000000
    5        6.085878   1.000000
    6        9.496570  -0.000000
    7       14.751957   0.000000
    8       19.688199   0.000000
    9       20.018079   0.000000
 
  0.5000000E+00  0.6410256E-01  0.5641026E+00  0.3571429E-02
    1        2.785484   1.000000
    2        3.217126   1.000000
    3        5.762599   1.000000
    4        5.843151   1.000000
    5        6.085898   1.000000
    6        9.584782  -0.000000
    7       14.766098   0.000000
    8       19.505600   0.000000
    9       19.888553   0.000000
 
  0.5000000E+00  0.7051282E-01  0.5705128E+00  0.3571429E-02
    1        2.804047   1.000000
    2        3.228981   1.000000
    3        5.705523   1.000000
    4        5.829037   1.000000
    5        6.085919   1.000000
    6        9.679303  -0.000000
    7       14.781842   0.000000
    8       19.316744   0.000000
    9       19.752967   0.000000
 
  0.5000000E+00  0.7692308E-01  0.5769231E+00  0.3571429E-02
    1        2.824146   1.000000
    2        3.241984   1.000000
    3        5.646193   1.000000
    4        5.813720   1.000000
    5        6.085942   1.000000
    6        9.779633  -0.000000
    7       14.799223   0.000000
    8       19.122991   0.000000
    9       19.612598   0.000000
 
  0.5000000E+00  0.8333333E-01  0.5833333E+00  0.3571429E-02
    1        2.845674   1.000000
    2        3.256142   1.000000
    3        5.585041   1.000000
    4        5.797241   1.000000
    5        6.085967   1.000000
    6        9.885322  -0.000000
    7       14.818277   0.000000
    8       18.925441   0.000000
    9       19.468563   0.000000
 
  0.5000000E+00  0.8974359E-01  0.5897436E+00  0.3571429E-02
    1        2.868548   1.000000
    2        3.271458   1.000000
    3        5.522463   1.000000
    4        5.779650   1.000000
    5        6.085994   1.000000
    6        9.995967  -0.000000
    7       14.839043   0.000000
    8       18.725018   0.000000
    9       19.321884   0.000000
 
  0.5000000E+00  0.9615385E-01  0.5961538E+00  0.3571429E-02
    1        2.892677   1.000000
    2        3.287937   1.000000
    3        5.458811   1.000000
    4        5.761006   1.000000
    5        6.086022   1.000000
    6       10.111208  -0.000000
    7       14.861564   0.000000
    8       18.522470   0.000000
    9       19.173459   0.000000
 
  0.5000000E+00  0.1025641E+00  0.6025641E+00  0.3571429E-02
    1        2.917958   1.000000
    2        3.305584   1.000000
    3        5.394392   1.000000
    4        5.741374   1.000000
    5        6.086053   1.000000
    6       10.230729  -0.000000
    7       14.885881   0.000000
    8       18.318411   0.000000
    9       19.024077   0.000000
 
  0.5000000E+00  0.1089744E+00  0.6089744E+00  0.3571429E-02
    1        2.944282   1.000000
    2        3.324405   1.000000
    3        5.329480   1.000000
    4        5.720829   1.000000
    5        6.086083   1.000000
    6       10.354253  -0.000000
    7       14.912041   0.000000
    8       18.113346   0.000000
    9       18.874432   0.000000
 
  0.5000000E+00  0.1153846E+00  0.6153846E+00  0.3571429E-02
    1        2.971529   1.000000
    2        3.344406   1.000000
    3        5.264309   1.000000
    4        5.699451   1.000000
    5        6.086114   1.000000
    6       10.481532  -0.000000
    7       14.940090   0.000000
    8       17.907696   0.000000
    9       18.725133   0.000000
 
  0.5000000E+00  0.1217949E+00  0.6217949E+00  0.3571429E-02
    1        2.999570   1.000000
    2        3.365597   1.000000
    3        5.199083   1.000000
    4        5.677328   1.000000
    5        6.086144   1.000000
    6       10.612349  -0.000000
    7       14.970079   0.000000
    8       17.701809   0.000000
    9       18.576707   0.000000
 
  0.5000000E+00  0.1282051E+00  0.6282051E+00  0.3571429E-02
    1        3.028263   1.000000
    2        3.387982   1.000000
    3        5.133979   1.000000
    4        5.654562   1.000000
    5        6.086175   1.000000
    6       10.746510  -0.000000
    7       15.002053   0.000000
    8       17.495977   0.000000
    9       18.429623   0.000000
 
  0.5000000E+00  0.1346154E+00  0.6346154E+00  0.3571429E-02
    1        3.057457   1.000000
    2        3.411567   1.000000
    3        5.069158   1.000000
    4        5.631268   1.000000
    5        6.086205   1.000000
    6       10.883852  -0.000000
    7       15.036063   0.000000
    8       17.290448   0.000000
    9       18.284292   0.000000
 
  0.5000000E+00  0.1410256E+00  0.6410256E+00  0.3571429E-02
    1        3.086989   1.000000
    2        3.436358   1.000000
    3        5.004755   1.000000
    4        5.607569   1.000000
    5        6.086234   1.000000
    6       11.024225  -0.000000
    7       15.072158   0.000000
    8       17.085430   0.000000
    9       18.141070   0.000000
 
  0.5000000E+00  0.1474359E+00  0.6474359E+00  0.3571429E-02
    1        3.116681   1.000000
    2        3.462362   1.000000
    3        4.940891   1.000000
    4        5.583607   1.000000
    5        6.086263   1.000000
    6       11.167498  -0.000000
    7       15.110383   0.000000
    8       16.881100   0.000000
    9       18.000275   0.000000
 
  0.5000000E+00  0.1538462E+00  0.6538462E+00  0.3571429E-02
    1        3.146346   1.000000
    2        3.489584   1.000000
    3        4.877668   1.000000
    4        5.559531   1.000000
    5        6.086291   1.000000
    6       11.313555  -0.000000
    7       15.150779   0.000000
    8       16.677611   0.000000
    9       17.862185   0.000000
 
  0.5000000E+00  0.1602564E+00  0.6602564E+00  0.3571429E-02
    1        3.175782   1.000000
    2        3.518036   1.000000
    3        4.815208   1.000000
    4        5.535520   1.000000
    5        6.086320   1.000000
    6       11.462291  -0.000000
    7       15.193383   0.000000
    8       16.475079   0.000000
    9       17.727042   0.000000
 
  0.5000000E+00  0.1666667E+00  0.6666667E+00  0.3571429E-02
    1        3.204774   1.000000
    2        3.547701   1.000000
    3        4.753511   1.000000
    4        5.511721   1.000000
    5        6.086347   1.000000
    6       11.613615  -0.000000
    7       15.238221   0.000000
    8       16.273629   0.000000
    9       17.595078   0.000000
 
  0.5000000E+00  0.1730769E+00  0.6730769E+00  0.3571429E-02
    1        3.233105   1.000000
    2        3.578633   1.000000
    3        4.692720   1.000000
    4        5.488387   1.000000
    5        6.086375   1.000000
    6       11.767440  -0.000000
    7       15.285313   0.000000
    8       16.073363   0.000000
    9       17.466518   0.000000
 
  0.5000000E+00  0.1794872E+00  0.6794872E+00  0.3571429E-02
    1        3.260513   1.000000
    2        3.610786   1.000000
    3        4.632866   1.000000
    4        5.465643   1.000000
    5        6.086400   1.000000
    6       11.923693  -0.000000
    7       15.334645   0.000000
    8       15.874365   0.000000
    9       17.341558   0.000000
 
  0.5000000E+00  0.1858974E+00  0.6858974E+00  0.3571429E-02
    1        3.286767   1.000000
    2        3.644191   1.000000
    3        4.574007   1.000000
    4        5.443769   1.000000
    5        6.086425   1.000000
    6       12.082304  -0.000000
    7       15.386187   0.000000
    8       15.676714   0.000000
    9       17.220418   0.000000
 
  0.5000000E+00  0.1923077E+00  0.6923077E+00  0.3571429E-02
    1        3.311605   1.000000
    2        3.678848   1.000000
    3        4.516185   1.000000
    4        5.422978   1.000000
    5        6.086449   1.000000
    6       12.243212  -0.000000
    7       15.439860   0.000000
    8       15.480477   0.000000
    9       17.103332   0.000000
 
  0.5000000E+00  0.1987179E+00  0.6987179E+00  0.3571429E-02
    1        3.334768   1.000000
    2        3.714761   1.000000
    3        4.459439   1.000000
    4        5.403508   1.000000
    5        6.086470   1.000000
    6       12.406360  -0.000000
    7       15.285716   0.000000
    8       15.495519   0.000000
    9       16.990586   0.000000
 
  0.5000000E+00  0.2051282E+00  0.7051282E+00  0.3571429E-02
    1        3.355991   1.000000
    2        3.751931   1.000000
    3        4.403804   1.000000
    4        5.385596   1.000000
    5        6.086490   1.000000
    6       12.571694  -0.000000
    7       15.092485   0.000000
    8       15.552910   0.000000
    9       16.882555   0.000000
 
  0.5000000E+00  0.2115385E+00  0.7115385E+00  0.3571429E-02
    1        3.375031   1.000000
    2        3.790362   1.000000
    3        4.349311   1.000000
    4        5.369492   1.000000
    5        6.086522   1.000000
    6       12.739168  -0.000000
    7       14.900835   0.000000
    8       15.611600   0.000000
    9       16.779776   0.000000
 
  0.5000000E+00  0.2179487E+00  0.7179487E+00  0.3571429E-02
    1        3.391620   1.000000
    2        3.830055   1.000000
    3        4.295987   1.000000
    4        5.355402   1.000000
    5        6.086537   1.000000
    6       12.908735  -0.000000
    7       14.710813   0.000000
    8       15.670847   0.000000
    9       16.683077   0.000000
 
  0.5000000E+00  0.2243590E+00  0.7243590E+00  0.3571429E-02
    1        3.405541   1.000000
    2        3.871011   1.000000
    3        4.243849   1.000000
    4        5.343545   1.000000
    5        6.086548   1.000000
    6       13.080352  -0.000000
    7       14.522460   0.000000
    8       15.729364   0.000000
    9       16.593820   0.000000
 
  0.5000000E+00  0.2307692E+00  0.7307692E+00  0.3571429E-02
    1        3.416596   1.000000
    2        3.913231   1.000000
    3        4.192914   1.000000
    4        5.334108   1.000000
    5        6.086557   1.000000
    6       13.253979  -0.000000
    7       14.335819   0.000000
    8       15.784867   0.000000
    9       16.514349   0.000000
 
  0.5000000E+00  0.2371795E+00  0.7371795E+00  0.3571429E-02
    1        3.424618   1.000000
    2        3.956715   1.000000
    3        4.143198   1.000000
    4        5.327248   1.000000
    5        6.086564   1.000000
    6       13.429577  -0.000000
    7       14.150928   0.000000
    8       15.833309   0.000000
    9       16.448756   0.000000
 
  0.5000000E+00  0.2435897E+00  0.7435897E+00  0.3571429E-02
    1        3.429484   1.000000
    2        4.001464   1.000000
    3        4.094711   1.000000
    4        5.323085   1.000000
    5        6.086569   1.000000
    6       13.607109   0.000000
    7       13.967825   0.000000
    8       15.868078   0.000000
    9       16.403685   0.000000
 
  0.5000000E+00  0.2500000E+00  0.7500000E+00  0.3571429E-02
    1        3.431125   1.000000
    2        4.047497   1.000000
    3        4.047502   1.000000
    4        5.321693   1.000000
    5        6.086577   1.000000
    6       13.786504   0.000000
    7       13.786575   0.000000
    8       15.881053   0.000000
    9       16.387281   0.000000
 
  0.5000000E+00  0.2500000E+00  0.7500000E+00  0.3571429E-02
    1        3.431125   1.000000
    2        4.047497   1.000000
    3        4.047502   1.000000
    4        5.321693   1.000000
    5        6.086577   1.000000
    6       13.786504   0.000000
    7       13.786575   0.000000
    8       15.881053   0.000000
    9       16.387281   0.000000
 
  0.5000000E+00  0.2564103E+00  0.7435897E+00  0.3571429E-02
    1        3.432560   1.000000
    2        4.044824   1.000000
    3        4.048703   1.000000
    4        5.321715   1.000000
    5        6.084754   1.000000
    6       13.745810   0.000000
    7       13.765930   0.000000
    8       15.926505   0.000000
    9       16.418877   0.000000
 
  0.5000000E+00  0.2628205E+00  0.7371795E+00  0.3571429E-02
    1        3.436946   1.000000
    2        4.036876   1.000000
    3        4.052409   1.000000
    4        5.321759   1.000000
    5        6.079402   1.000000
    6       13.632687   0.000000
    7       13.707191   0.000000
    8       16.053715   0.000000
    9       16.510688   0.000000
 
  0.5000000E+00  0.2692308E+00  0.7307692E+00  0.3571429E-02
    1        3.444253   1.000000
    2        4.023708   1.000000
    3        4.058572   1.000000
    4        5.321648   1.000000
    5        6.070682   1.000000
    6       13.467048  -0.000000
    7       13.617684   0.000000
    8       16.242841   0.000000
    9       16.655212   0.000000
 
  0.5000000E+00  0.2756410E+00  0.7243590E+00  0.3571429E-02
    1        3.454482   1.000000
    2        4.005508   1.000000
    3        4.067174   1.000000
    4        5.321118   1.000000
    5        6.058905   1.000000
    6       13.267723  -0.000000
    7       13.506310  -0.000000
    8       16.475056   0.000000
    9       16.843388   0.000000
 
  0.5000000E+00  0.2820513E+00  0.7179487E+00  0.3571429E-02
    1        3.467620   1.000000
    2        3.982441   1.000000
    3        4.078183   1.000000
    4        5.319798   1.000000
    5        6.044472   1.000000
    6       13.048075  -0.000000
    7       13.381192  -0.000000
    8       16.736987   0.000000
    9       17.066866   0.000000
 
  0.5000000E+00  0.2884615E+00  0.7115385E+00  0.3571429E-02
    1        3.483652   1.000000
    2        3.954729   1.000000
    3        4.091564   1.000000
    4        5.317234   1.000000
    5        6.027911   1.000000
    6       12.816624  -0.000000
    7       13.248764  -0.000000
    8       17.020115   0.000000
    9       17.318919   0.000000
 
  0.5000000E+00  0.2948718E+00  0.7051282E+00  0.3571429E-02
    1        3.502560   1.000000
    2        3.922619   1.000000
    3        4.107273   1.000000
    4        5.312911   1.000000
    5        6.009849   1.000000
    6       12.578665  -0.000000
    7       13.113756  -0.000000
    8       17.319133   0.000000
    9       17.594457   0.000000
 
  0.5000000E+00  0.3012821E+00  0.6987179E+00  0.3571429E-02
    1        3.524318   1.000000
    2        3.886380   1.000000
    3        4.125264   1.000000
    4        5.306278   1.000000
    5        5.990997   1.000000
    6       12.337532  -0.000000
    7       12.979514  -0.000000
    8       17.630702   0.000000
    9       17.889716   0.000000
 
  0.5000000E+00  0.3076923E+00  0.6923077E+00  0.3571429E-02
    1        3.548898   1.000000
    2        3.846289   1.000000
    3        4.145495   1.000000
    4        5.296791   1.000000
    5        5.972122   1.000000
    6       12.095368  -0.000000
    7       12.848338  -0.000000
    8       17.952646   0.000000
    9       18.201888   0.000000
 
  0.5000000E+00  0.3141026E+00  0.6858974E+00  0.3571429E-02
    1        3.576239   1.000000
    2        3.802637   1.000000
    3        4.167899   1.000000
    4        5.283920   1.000000
    5        5.953938   1.000000
    6       11.853602  -0.000000
    7       12.721795  -0.000000
    8       18.283542   0.000000
    9       18.528895   0.000000
 
  0.5000000E+00  0.3205128E+00  0.6794872E+00  0.3571429E-02
    1        3.606319   1.000000
    2        3.755720   1.000000
    3        4.192466   1.000000
    4        5.267293   1.000000
    5        5.937169   1.000000
    6       11.613214  -0.000000
    7       12.600921  -0.000000
    8       18.622405   0.000000
    9       18.869135   0.000000
 
  0.5000000E+00  0.3269231E+00  0.6730769E+00  0.3571429E-02
    1        3.639021   1.000000
    2        3.705837   1.000000
    3        4.219139   1.000000
    4        5.246658   1.000000
    5        5.922351   1.000000
    6       11.374881  -0.000000
    7       12.486350  -0.000000
    8       18.968537   0.000000
    9       19.221332   0.000000
 
  0.5000000E+00  0.3333333E+00  0.6666667E+00  0.3571429E-02
    1        3.653297   1.000000
    2        3.674265   1.000000
    3        4.247904   1.000000
    4        5.221983   1.000000
    5        5.909870   1.000000
    6       11.139091  -0.000000
    7       12.378445  -0.000000
    8       19.321435   0.000000
    9       19.584462   0.000000
 
  0.5000000E+00  0.3397436E+00  0.6602564E+00  0.3571429E-02
    1        3.598417   1.000000
    2        3.711927   1.000000
    3        4.278754   1.000000
    4        5.193448   1.000000
    5        5.899909   1.000000
    6       10.906196  -0.000000
    7       12.277360  -0.000000
    8       19.680717   0.000000
    9       19.957662   0.000000
 
  0.5000000E+00  0.3461538E+00  0.6538462E+00  0.3571429E-02
    1        3.541530   1.000000
    2        3.751870   1.000000
    3        4.311733   1.000000
    4        5.161440   1.000000
    5        5.892472   1.000000
    6       10.676462  -0.000000
    7       12.183105  -0.000000
    8       20.046092   0.000000
    9       20.340195   0.000000
 
  0.5000000E+00  0.3525641E+00  0.6474359E+00  0.3571429E-02
    1        3.482963   1.000000
    2        3.793867   1.000000
    3        4.346843   1.000000
    4        5.126463   1.000000
    5        5.887394   1.000000
    6       10.450084  -0.000000
    7       12.095566  -0.000000
    8       20.417303   0.000000
    9       20.731381   0.000000
 
  0.5000000E+00  0.3589744E+00  0.6410256E+00  0.3571429E-02
    1        3.423071   1.000000
    2        3.837692   1.000000
    3        4.384183   1.000000
    4        5.089139   1.000000
    5        5.884428   1.000000
    6       10.227216  -0.000000
    7       12.014563  -0.000000
    8       20.794170   0.000000
    9       21.130644   0.000000
 
  0.5000000E+00  0.3653846E+00  0.6346154E+00  0.3571429E-02
    1        3.362221   1.000000
    2        3.883054   1.000000
    3        4.423908   1.000000
    4        5.050089   1.000000
    5        5.883274   1.000000
    6       10.007977  -0.000000
    7       11.939853  -0.000000
    8       21.176518   0.000000
    9       21.537436   0.000000
 
  0.5000000E+00  0.3717949E+00  0.6282051E+00  0.3571429E-02
    1        3.300787   1.000000
    2        3.929602   1.000000
    3        4.466194   1.000000
    4        5.009958   1.000000
    5        5.883618   1.000000
    6        9.792464  -0.000000
    7       11.871158  -0.000000
    8       21.564183   0.000000
    9       21.951221   0.000000
 
  0.5000000E+00  0.3782051E+00  0.6217949E+00  0.3571429E-02
    1        3.239156   1.000000
    2        3.976928   1.000000
    3        4.511288   1.000000
    4        4.969344   1.000000
    5        5.885164   1.000000
    6        9.580755  -0.000000
    7       11.808173  -0.000000
    8       21.957001   0.000000
    9       22.371470   0.000000
 
  0.5000000E+00  0.3846154E+00  0.6153846E+00  0.3571429E-02
    1        3.177722   1.000000
    2        4.024566   1.000000
    3        4.559475   1.000000
    4        4.928782   1.000000
    5        5.887635   1.000000
    6        9.372913  -0.000000
    7       11.750587  -0.000000
    8       22.354797   0.000000
    9       22.797644   0.000000
 
  0.5000000E+00  0.3910256E+00  0.6089744E+00  0.3571429E-02
    1        3.116882   1.000000
    2        4.071997   1.000000
    3        4.611101   1.000000
    4        4.888739   1.000000
    5        5.890792   1.000000
    6        9.169001  -0.000000
    7       11.698086  -0.000000
    8       22.757368   0.000000
    9       23.229187   0.000000
 
  0.5000000E+00  0.3974359E+00  0.6025641E+00  0.3571429E-02
    1        3.057034   1.000000
    2        4.118680   1.000000
    3        4.666490   1.000000
    4        4.849618   1.000000
    5        5.894422   1.000000
    6        8.969073  -0.000000
    7       11.650353  -0.000000
    8       23.164468   0.000000
    9       23.665472   0.000000
 
  0.5000000E+00  0.4038462E+00  0.5961538E+00  0.3571429E-02
    1        2.998567   1.000000
    2        4.164049   1.000000
    3        4.725975   1.000000
    4        4.811762   1.000000
    5        5.898350   1.000000
    6        8.773186  -0.000004
    7       11.607085  -0.000000
    8       23.575834   0.000000
    9       24.105868   0.000000
 
  0.5000000E+00  0.4102564E+00  0.5897436E+00  0.3571429E-02
    1        2.941877   1.000000
    2        4.207643   1.000000
    3        4.775474   1.000000
    4        4.789909   1.000000
    5        5.902443   1.000000
    6        8.581400  -0.000844
    7       11.567988  -0.000000
    8       23.991112   0.000000
    9       24.549647   0.000000
 
  0.5000000E+00  0.4166667E+00  0.5833333E+00  0.3571429E-02
    1        2.887335   1.000000
    2        4.249007   1.000000
    3        4.740995   1.000000
    4        4.858496   1.000000
    5        5.906580   1.000000
    6        8.393780  -0.021615
    7       11.532789  -0.000000
    8       24.409847   0.000000
    9       24.995954   0.000000
 
  0.5000000E+00  0.4230769E+00  0.5769231E+00  0.3571429E-02
    1        2.835301   1.000000
    2        4.287792   1.000000
    3        4.708524   1.000000
    4        4.931865   1.000000
    5        5.910665   1.000000
    6        8.210409   0.035109
    7       11.501228  -0.000000
    8       24.831428   0.000000
    9       25.443788   0.000000
 
  0.5000000E+00  0.4294872E+00  0.5705128E+00  0.3571429E-02
    1        2.786103   1.000000
    2        4.323723   1.000000
    3        4.678214   1.000000
    4        5.010023   1.000000
    5        5.914617   1.000000
    6        8.031386   0.649982
    7       11.473061  -0.000000
    8       25.255022   0.000000
    9       25.891942   0.000000
 
  0.5000000E+00  0.4358974E+00  0.5641026E+00  0.3571429E-02
    1        2.740085   1.000000
    2        4.356666   1.000000
    3        4.650217   1.000000
    4        5.092875   1.000000
    5        5.918376   1.000000
    6        7.856846   1.029800
    7       11.448070  -0.000000
    8       25.679469   0.000000
    9       26.338903   0.000000
 
  0.5000000E+00  0.4423077E+00  0.5576923E+00  0.3571429E-02
    1        2.697533   1.000000
    2        4.386505   1.000000
    3        4.624635   1.000000
    4        5.180199   1.000000
    5        5.921889   1.000000
    6        7.686971   1.010813
    7       11.426052  -0.000000
    8       26.103127   0.000000
    9       26.782792   0.000000
 
  0.5000000E+00  0.4487179E+00  0.5512821E+00  0.3571429E-02
    1        2.658718   1.000000
    2        4.413190   1.000000
    3        4.601559   1.000000
    4        5.271656   1.000000
    5        5.925114   1.000000
    6        7.522023   1.000395
    7       11.406828  -0.000000
    8       26.523567   0.000000
    9       27.221163   0.000000
 
  0.5000000E+00  0.4551282E+00  0.5448718E+00  0.3571429E-02
    1        2.623859   1.000000
    2        4.436729   1.000000
    3        4.581048   1.000000
    4        5.366748   1.000000
    5        5.928005   1.000000
    6        7.362394   1.000004
    7       11.390237  -0.000000
    8       26.937082   0.000000
    9       27.650729   0.000000
 
  0.5000000E+00  0.4615385E+00  0.5384615E+00  0.3571429E-02
    1        2.593227   1.000000
    2        4.457086   1.000000
    3        4.563186   1.000000
    4        5.464775   1.000000
    5        5.930565   1.000000
    6        7.208692   1.000000
    7       11.376140  -0.000000
    8       27.337752   0.000000
    9       28.067005   0.000000
 
  0.5000000E+00  0.4679487E+00  0.5320513E+00  0.3571429E-02
    1        2.566985   1.000000
    2        4.474286   1.000000
    3        4.548002   1.000000
    4        5.564626   1.000000
    5        5.932760   1.000000
    6        7.061918   1.000000
    7       11.364413  -0.000000
    8       27.716006   0.000000
    9       28.463772   0.000000
 
  0.5000000E+00  0.4743590E+00  0.5256410E+00  0.3571429E-02
    1        2.545278   1.000000
    2        4.488343   1.000000
    3        4.535534   1.000000
    4        5.664458   1.000000
    5        5.934575   1.000000
    6        6.923818   1.000000
    7       11.354956  -0.000000
    8       28.056299   0.000000
    9       28.847898   0.000000
 
  0.5000000E+00  0.4807692E+00  0.5192308E+00  0.3571429E-02
    1        2.528270   1.000000
    2        4.499270   1.000000
    3        4.525811   1.000000
    4        5.760964   1.000000
    5        5.935998   1.000000
    6        6.797635   1.000000
    7       11.347686  -0.000000
    8       28.335852   0.000000
    9       29.162953   0.000000
 
  0.5000000E+00  0.4871795E+00  0.5128205E+00  0.3571429E-02
    1        2.516032   1.000000
    2        4.507027   1.000000
    3        4.518837   1.000000
    4        5.847744   1.000000
    5        5.937015   1.000000
    6        6.689692   1.000000
    7       11.342536  -0.000000
    8       28.531901   0.000000
    9       29.467263   0.000000
 
  0.5000000E+00  0.4935897E+00  0.5064103E+00  0.3571429E-02
    1        2.508669   1.000000
    2        4.511704   1.000000
    3        4.514657   1.000000
    4        5.912690   1.000000
    5        5.937632   1.000000
    6        6.612075   1.000000
    7       11.339466  -0.000000
    8       28.639514   0.000000
    9       29.609815   0.000000
 
  0.5000000E+00  0.5000000E+00  0.5000000E+00  0.3571429E-02
    1        2.506210   1.000000
    2        4.513264   1.000000
    3        4.513264   1.000000
    4        5.937838   1.000000
    5        5.937838   1.000000
    6        6.582707   1.000000
    7       11.338446  -0.000000
    8       28.672399   0.000000
    9       29.654735   0.000000
 
  0.5000000E+00  0.5000000E+00  0.5000000E+00  0.3571429E-02
    1        2.506210   1.000000
    2        4.513264   1.000000
    3        4.513264   1.000000
    4        5.937838   1.000000
    5        5.937838   1.000000
    6        6.582707   1.000000
    7       11.338446  -0.000000
    8       28.672399   0.000000
    9       29.654735   0.000000
 
  0.4871795E+00  0.4871795E+00  0.4871795E+00  0.3571429E-02
    1        2.502891   1.000000
    2        4.514061   1.000000
    3        4.514061   1.000000
    4        5.935971   1.000000
    5        5.935971   1.000000
    6        6.549881   1.000000
    7       11.386083  -0.000000
    8       28.677050   0.000000
    9       29.655924   0.000000
 
  0.4743590E+00  0.4743590E+00  0.4743590E+00  0.3571429E-02
    1        2.492792   1.000000
    2        4.516450   1.000000
    3        4.516450   1.000000
    4        5.930404   1.000000
    5        5.930404   1.000000
    6        6.455651   1.000000