    1    1    1    1
  0.1181041E+02  0.2556191E-09  0.2556191E-09  0.2556191E-09  0.5000000E-15
  1.000000000000000E-004
  CAR 
 Cu SCF                                  
     11     84     16
 
  0.0000000E+00  0.0000000E+00  0.0000000E+00  0.4551661E-03
    1       -1.765932   1.000000
    2        4.551126   1.000000
    3        4.551129   1.000000
    4        4.551129   1.000000
    5        5.378009   1.000000
    6        5.378009   1.000000
    7       30.179707   0.000000
    8       32.823531   0.000000
    9       32.823576   0.000000
   10       32.823576   0.000000
   11       35.313034   0.000000
   12       35.313069   0.000000
   13       35.313069   0.000000
   14       39.082583   0.000000
   15       43.855922   0.000000
   16       43.855975   0.000000
 
  0.7692308E-01  0.0000000E+00  0.0000000E+00  0.3641329E-02
    1       -1.550735   1.000000
    2        4.506270   1.000000
    3        4.590914   1.000000
    4        4.590916   1.000000
    5        5.362829   1.000000
    6        5.362830   1.000000
    7       28.743701   0.000000
    8       31.114458   0.000000
    9       32.207343   0.000000
   10       32.207379   0.000000
   11       36.229184   0.000000
   12       36.229209   0.000000
   13       37.018473   0.000000
   14       40.468779   0.000000
   15       41.909089   0.000000
   16       41.909140   0.000000
 
  0.1538462E+00  0.0000000E+00  0.0000000E+00  0.3641329E-02
    1       -0.919757   1.000000
    2        4.396698   1.000000
    3        4.677154   1.000000
    4        4.677154   1.000000
    5        5.348331   1.000000
    6        5.348336   1.000000
    7       24.894434   0.000000
    8       30.675148   0.000000
    9       31.288299   0.000000
   10       31.288324   0.000000
   11       37.166706   0.000000
   12       37.655480   0.000000
   13       37.655494   0.000000
   14       39.857997   0.000000
   15       39.858093   0.000000
   16       43.977234   0.000000
 
  0.2307692E+00  0.0000000E+00  0.0000000E+00  0.3641329E-02
    1        0.068638   1.000000
    2        4.302913   1.000000
    3        4.714878   1.000000
    4        4.714882   1.000000
    5        5.420913   1.000000
    6        5.420925   1.000000
    7       20.972803   0.000000
    8       30.206093   0.000000
    9       30.551472   0.000000
   10       30.551482   0.000000
   11       36.539846   0.000000
   12       36.539862   0.000000
   13       37.185452   0.000000
   14       41.128032   0.000000
   15       41.128105   0.000000
   16       45.989406   0.000000
 
  0.3076923E+00  0.0000000E+00  0.0000000E+00  0.3641329E-02
    1        1.239115   1.000000
    2        4.409199   1.000000
    3        4.661131   1.000000
    4        4.661135   1.000000
    5        5.604216   1.000000
    6        5.604232   1.000000
    7       17.324401   0.000000
    8       29.588826   0.000000
    9       30.051857   0.000000
   10       30.051871   0.000000
   11       34.788081   0.000000
   12       34.788130   0.000000
   13       37.443780   0.000000
   14       43.831208   0.000000
   15       43.831263   0.000000
   16       47.968884   0.000000
 
  0.3846154E+00  0.0000000E+00  0.0000000E+00  0.3641329E-02
    1        2.142186   1.000000
    2        4.580269   1.000000
    3        4.580272   1.000000
    4        5.104057   1.000000
    5        5.802820   1.000000
    6        5.802838   1.000000
    7       14.104974   0.000000
    8       29.033038   0.000000
    9       29.773483   0.000000
   10       29.773528   0.000000
   11       33.468091   0.000000
   12       33.468171   0.000000
   13       37.753979   0.000000
   14       46.913431   0.000000
   15       46.913471   0.000000
   16       50.313542   0.000000
 
  0.4615385E+00  0.0000000E+00  0.0000000E+00  0.3641329E-02
    1        2.474080   1.000000
    2        4.527846   1.000000
    3        4.527849   1.000000
    4        5.926160   1.000000
    5        5.926179   1.000000
    6        6.311122   1.000000
    7       11.743859  -0.000000
    8       28.714038   0.000000
    9       29.666363   0.000000
   10       29.666433   0.000000
   11       32.753491   0.000000
   12       32.753597   0.000000
   13       37.944463   0.000000
   14       49.982661   0.000000
   15       49.982674   0.000000
   16       52.496087   0.000000
 
  0.7692308E-01  0.7692308E-01  0.0000000E+00  0.2730997E-02
    1       -1.479246   1.000000
    2        4.466974   1.000000
    3        4.618906   1.000000
    4        4.618908   1.000000
    5        5.302306   1.000000
    6        5.408781   1.000000
    7       29.323630   0.000000
    8       30.646112   0.000000
    9       30.646137   0.000000
   10       31.756129   0.000000
   11       36.779541   0.000000
   12       37.621397   0.000000
   13       37.621428   0.000000
   14       38.589345   0.000000
   15       41.590488   0.000000
   16       44.403187   0.000000
 
  0.1538462E+00  0.7692308E-01  0.0000000E+00  0.1092399E-01
    1       -0.987334   1.000000
    2        4.361696   1.000000
    3        4.703156   1.000000
    4        4.707029   1.000000
    5        5.233683   1.000000
    6        5.436346   1.000000
    7       26.363206   0.000000
    8       29.367997   0.000000
    9       29.669906   0.000000
   10       32.579147   0.000000
   11       35.661913   0.000000
   12       37.407697   0.000000
   13       39.161604   0.000000
   14       39.559651   0.000000
   15       42.968964   0.000000
   16       43.664038   0.000000
 
  0.2307692E+00  0.7692308E-01  0.0000000E+00  0.1092399E-01
    1       -0.115662   1.000000
    2        4.243313   1.000000
    3        4.742484   1.000000
    4        4.774168   1.000000
    5        5.272134   1.000000
    6        5.507574   1.000000
    7       22.405239   0.000000
    8       28.427532   0.000000
    9       29.117680   0.000000
   10       33.118045   0.000000
   11       34.250859   0.000000
   12       37.359395   0.000000
   13       39.171857   0.000000
   14       40.052309   0.000000
   15       42.944832   0.000000
   16       46.242834   0.000000
 
  0.3076923E+00  0.7692308E-01  0.0000000E+00  0.1092399E-01
    1        1.013179   1.000000
    2        4.223165   1.000000
    3        4.658052   1.000000
    4        4.754071   1.000000
    5        5.519589   1.000000
    6        5.663178   1.000000
    7       18.649551   0.000000
    8       27.847978   0.000000
    9       28.602870   0.000000
   10       31.175933   0.000000
   11       34.843036   0.000000
   12       37.564956   0.000000
   13       37.874839   0.000000
   14       41.041071   0.000000
   15       45.216394   0.000000
   16       48.336091   0.000000
 
  0.3846154E+00  0.7692308E-01  0.0000000E+00  0.1092399E-01
    1        2.047370   1.000000
    2        4.509305   1.000000
    3        4.576492   1.000000
    4        4.680482   1.000000
    5        5.837522   1.000000
    6        5.948652   1.000000
    7       15.253687   0.000000
    8       27.659332   0.000000
    9       28.083051   0.000000
   10       29.631393   0.000000
   11       34.758772   0.000000
   12       36.028514   0.000000
   13       38.638196   0.000000
   14       43.123110   0.000000
   15       48.083843   0.000000
   16       50.725844   0.000000
 
  0.4615385E+00  0.7692308E-01  0.0000000E+00  0.1092399E-01
    1        2.533639   1.000000
    2        4.462370   1.000000
    3        4.612616   1.000000
    4        5.159337   1.000000
    5        5.940470   1.000000
    6        6.760549   1.000000
    7       12.470942  -0.000000
    8       27.369939   0.000000
    9       27.899966   0.000000
   10       28.887985   0.000000
   11       34.663032   0.000000
   12       34.821991   0.000000
   13       39.079169   0.000000
   14       46.126615   0.000000
   15       50.810626   0.000000
   16       52.612715   0.000000
 
 -0.4615385E+00  0.7692308E-01  0.0000000E+00  0.1092399E-01
    1        2.617277   1.000000
    2        4.449555   1.000000
    3        4.586353   1.000000
    4        5.375461   1.000000
    5        5.920283   1.000000
    6        7.325295   1.003684
    7       11.440030  -0.000000
    8       26.621435   0.000000
    9       28.601143   0.000000
   10       28.901395   0.000000
   11       33.980497   0.000000
   12       34.770090   0.000000
   13       39.301808   0.000000
   14       49.535381   0.000000
   15       49.552641   0.000000
   16       51.151460   0.000000
 
 -0.3846154E+00  0.7692308E-01  0.0000000E+00  0.1092399E-01
    1        2.436018   1.000000
    2        4.500857   1.000000
    3        4.615020   1.000000
    4        5.025080   1.000000
    5        5.774233   1.000000
    6        6.516297   1.000000
    7       13.299951   0.000000
    8       26.167882   0.000000
    9       29.398791   0.000000
   10       29.763918   0.000000
   11       33.504985   0.000000
   12       35.025844   0.000000
   13       39.453049   0.000000
   14       46.156892   0.000000
   15       48.063631   0.000000
   16       52.288823   0.000000
 
 -0.3076923E+00  0.7692308E-01  0.0000000E+00  0.1092399E-01
    1        1.751818   1.000000
    2        4.410217   1.000000
    3        4.596068   1.000000
    4        4.690107   1.000000
    5        5.545161   1.000000
    6        5.983231   1.000000
    7       16.340170   0.000000
    8       26.086207   0.000000
    9       30.275162   0.000000
   10       31.321679   0.000000
   11       33.421772   0.000000
   12       35.210852   0.000000
   13       39.732281   0.000000
   14       42.860783   0.000000
   15       45.383081   0.000000
   16       50.731379   0.000000
 
 -0.2307692E+00  0.7692308E-01  0.0000000E+00  0.1092399E-01
    1        0.624064   1.000000
    2        4.228786   1.000000
    3        4.690132   1.000000
    4        4.769819   1.000000
    5        5.317704   1.000000
    6        5.683830   1.000000
    7       19.871891   0.000000
    8       26.364420   0.000000
    9       31.375986   0.000000
   10       32.838165   0.000000
   11       34.091604   0.000000
   12       35.106018   0.000000
   13       39.874168   0.000000
   14       40.357611   0.000000
   15       43.304670   0.000000
   16       48.283896   0.000000
 
 -0.1538462E+00  0.7692308E-01  0.0000000E+00  0.1092399E-01
    1       -0.443641   1.000000
    2        4.301447   1.000000
    3        4.720528   1.000000
    4        4.753864   1.000000
    5        5.227423   1.000000
    6        5.490055   1.000000
    7       23.711234   0.000000
    8       26.984103   0.000000
    9       32.194743   0.000000
   10       33.552534   0.000000
   11       35.074938   0.000000
   12       36.020132   0.000000
   13       37.445045   0.000000
   14       41.180903   0.000000
   15       41.799744   0.000000
   16       46.051878   0.000000
 
 -0.7692308E-01  0.7692308E-01  0.0000000E+00  0.5461994E-02
    1       -1.196804   1.000000
    2        4.425694   1.000000
    3        4.649784   1.000000
    4        4.661900   1.000000
    5        5.285905   1.000000
    6        5.405301   1.000000
    7       27.342728   0.000000
    8       28.298497   0.000000
    9       32.041624   0.000000
   10       33.630539   0.000000
   11       35.605770   0.000000
   12       35.854534   0.000000
   13       38.982444   0.000000
   14       40.039358   0.000000
   15       41.154885   0.000000
   16       43.547575   0.000000
 
  0.1538462E+00  0.1538462E+00  0.0000000E+00  0.2730997E-02
    1       -0.642793   1.000000
    2        4.236741   1.000000
    3        4.816429   1.000000
    4        4.816430   1.000000
    5        5.108333   1.000000
    6        5.494519   1.000000
    7       27.814672   0.000000
    8       27.814695   0.000000
    9       27.937540   0.000000
   10       29.784660   0.000000
   11       33.877870   0.000000
   12       39.971307   0.000000
   13       40.789684   0.000000
   14       40.789725   0.000000
   15       44.306007   0.000000
   16       46.104633   0.000000
 
  0.2307692E+00  0.1538462E+00  0.0000000E+00  0.1092399E-01
    1        0.083769   1.000000
    2        4.091863   1.000000
    3        4.830709   1.000000
    4        4.930123   1.000000
    5        5.155094   1.000000
    6        5.566487   1.000000
    7       24.111984   0.000000
    8       26.649041   0.000000
    9       28.043477   0.000000
   10       29.821481   0.000000
   11       32.449343   0.000000
   12       39.939720   0.000000
   13       41.714054   0.000000
   14       42.489031   0.000000
   15       45.333296   0.000000
   16       47.113217   0.000000
 
  0.3076923E+00  0.1538462E+00  0.0000000E+00  0.1092399E-01
    1        1.099870   1.000000
    2        3.987878   1.000000
    3        4.658153   1.000000
    4        4.957668   1.000000
    5        5.524770   1.000000
    6        5.705656   1.000000
    7       20.296835   0.000000
    8       25.898054   0.000000
    9       27.212962   0.000000
   10       28.828290   0.000000
   11       34.184054   0.000000
   12       39.185756   0.000000
   13       40.600879   0.000000
   14       42.940099   0.000000
   15       46.919405   0.000000
   16       49.583508   0.000000
 
  0.3846154E+00  0.1538462E+00  0.0000000E+00  0.1092399E-01
    1        2.147187   1.000000
    2        4.032787   1.000000
    3        4.502947   1.000000
    4        4.903723   1.000000
    5        5.867713   1.000000
    6        6.158909   1.000000
    7       16.759730   0.000000
    8       25.596577   0.000000
    9       25.841506   0.000000
   10       28.153848   0.000000
   11       37.028021   0.000000
   12       38.494799   0.000000
   13       39.050774   0.000000
   14       43.082840   0.000000
   15       49.599307   0.000000
   16       52.095471   0.000000
 
  0.4615385E+00  0.1538462E+00  0.0000000E+00  0.1092399E-01
    1        2.760343   1.000000
    2        4.200053   1.000000
    3        4.562904   1.000000
    4        4.829127   1.000000
    5        5.959317   1.000000
    6        7.250128   1.000746
    7       13.661292   0.000000
    8       24.448108   0.000000
    9       25.780400   0.000000
   10       27.991938   0.000000
   11       37.728531   0.000000
   12       37.835136   0.000000
   13       40.283459   0.000000
   14       43.422144   0.000000
   15       52.019542   0.000000
   16       53.565125   0.000000
 
 -0.4615385E+00  0.1538462E+00  0.0000000E+00  0.1092399E-01
    1        2.923721   1.000000
    2        4.222406   1.000000
    3        4.778245   1.000000
    4        4.794701   1.000000
    5        5.925278   1.000000
    6        8.502065  -0.000001
    7       11.621853  -0.000000
    8       23.351073   0.000000
    9       26.470242   0.000000
   10       28.187511   0.000000
   11       36.734814   0.000000
   12       37.402096   0.000000
   13       42.484759   0.000000
   14       45.185813   0.000000
   15       49.508646   0.000000
   16       51.149222   0.000000
 
 -0.3846154E+00  0.1538462E+00  0.0000000E+00  0.1092399E-01
    1        2.869166   1.000000
    2        4.287200   1.000000
    3        4.688624   1.000000
    4        4.775057   1.000000
    5        5.762028   1.000000
    6        7.807517   0.341638
    7       12.807554  -0.000000
    8       22.641858   0.000000
    9       27.657273   0.000000
   10       28.753202   0.000000
   11       36.087372   0.000000
   12       36.963420   0.000000
   13       43.143691   0.000000
   14       45.845740   0.000000
   15       47.975488   0.000000
   16       48.972821   0.000000
 
 -0.3076923E+00  0.1538462E+00  0.0000000E+00  0.1092399E-01
    1        2.453518   1.000000
    2        4.283978   1.000000
    3        4.419472   1.000000
    4        4.826463   1.000000
    5        5.508257   1.000000
    6        6.730370   1.000000
    7       15.694025   0.000000
    8       22.348168   0.000000
    9       29.301280   0.000000
   10       29.722360   0.000000
   11       35.787674   0.000000
   12       36.309494   0.000000
   13       42.356052   0.000000
   14       43.292476   0.000000
   15       45.937136   0.000000
   16       52.876851   0.000000
 
 -0.2307692E+00  0.1538462E+00  0.0000000E+00  0.1092399E-01
    1        1.484697   1.000000
    2        4.103114   1.000000
    3        4.574303   1.000000
    4        4.920050   1.000000
    5        5.229274   1.000000
    6        6.122768   1.000000
    7       19.102735   0.000000
    8       22.470287   0.000000
    9       31.107022   0.000000
   10       31.338775   0.000000
   11       35.230264   0.000000
   12       35.837773   0.000000
   13       39.140467   0.000000
   14       42.574662   0.000000
   15       45.606359   0.000000
   16       51.683087   0.000000
 
 -0.1538462E+00  0.1538462E+00  0.0000000E+00  0.5461994E-02
    1        0.399767   1.000000
    2        4.168034   1.000000
    3        4.693965   1.000000
    4        4.917118   1.000000
    5        5.106535   1.000000
    6        5.737532   1.000000
    7       22.566783   0.000000
    8       23.262807   0.000000
    9       32.831134   0.000000
   10       33.674038   0.000000
   11       33.839869   0.000000
   12       35.977547   0.000000
   13       36.531109   0.000000
   14       41.863541   0.000000
   15       45.023779   0.000000
   16       48.433998   0.000000
 
  0.2307692E+00  0.2307692E+00  0.0000000E+00  0.2730997E-02
    1        0.639191   1.000000
    2        3.919195   1.000000
    3        4.928218   1.000000
    4        5.122349   1.000000
    5        5.122350   1.000000
    6        5.616466   1.000000
    7       25.260163   0.000000
    8       25.260186   0.000000
    9       26.781125   0.000000
   10       26.912074   0.000000
   11       30.219204   0.000000
   12       43.856124   0.000000
   13       43.856174   0.000000
   14       44.059192   0.000000
   15       47.379210   0.000000
   16       47.611504   0.000000
 
  0.3076923E+00  0.2307692E+00  0.0000000E+00  0.1092399E-01
    1        1.461832   1.000000
    2        3.771904   1.000000
    3        4.794376   1.000000
    4        5.232574   1.000000
    5        5.501517   1.000000
    6        5.724747   1.000000
    7       22.148351   0.000000
    8       24.306099   0.000000
    9       25.021427   0.000000
   10       27.288297   0.000000
   11       30.542106   0.000000
   12       43.440693   0.000000
   13       43.836229   0.000000
   14       46.072954   0.000000
   15       48.414498   0.000000
   16       50.815868   0.000000
 
  0.3846154E+00  0.2307692E+00  0.0000000E+00  0.1092399E-01
    1        2.344958   1.000000
    2        3.703957   1.000000
    3        4.631229   1.000000
    4        5.214719   1.000000
    5        5.883984   1.000000
    6        6.266800   1.000000
    7       18.592631   0.000000
    8       23.145659   0.000000
    9       23.835589   0.000000
   10       27.283829   0.000000
   11       33.009079   0.000000
   12       42.344160   0.000000
   13       42.489557   0.000000
   14       46.575452   0.000000
   15       51.143254   0.000000
   16       53.821075   0.000000
 
  0.4615385E+00  0.2307692E+00  0.0000000E+00  0.1092399E-01
    1        2.965906   1.000000
    2        3.759161   1.000000
    3        4.536039   1.000000
    4        5.143239   1.000000
    5        5.978118   1.000000
    6        7.571622   1.023897
    7       15.315036   0.000000
    8       21.531213   0.000000
    9       23.889787   0.000000
   10       27.271026   0.000000
   11       36.204829   0.000000
   12       40.929452   0.000000
   13       41.612761   0.000000
   14       46.829661   0.000000
   15       53.450583   0.000000
   16       54.677361   0.000000
 
 -0.4615385E+00  0.2307692E+00  0.0000000E+00  0.1092399E-01
    1        3.231620   1.000000
    2        3.860481   1.000000
    3        4.533862   1.000000
    4        5.071772   1.000000
    5        5.941929   1.000000
    6        9.362092  -0.000000
    7       12.575878  -0.000000
    8       20.263284   0.000000
    9       24.483374   0.000000
   10       27.463907   0.000000
   11       39.423591   0.000000
   12       39.815078   0.000000
   13       41.228667   0.000000
   14       47.146407   0.000000
   15       49.839494   0.000000
   16       51.507987   0.000000
 
 -0.3846154E+00  0.2307692E+00  0.0000000E+00  0.1092399E-01
    1        3.309259   1.000000
    2        3.967815   1.000000
    3        4.450486   1.000000
    4        5.028369   1.000000
    5        5.775398   1.000000
    6        9.458594  -0.000000
    7       12.579302  -0.000000
    8       19.387844   0.000000
    9       25.592144   0.000000
   10       27.935871   0.000000
   11       39.038842   0.000000
   12       39.556085   0.000000
   13       44.195677   0.000000
   14       46.032786   0.000000
   15       47.074909   0.000000
   16       48.857793   0.000000
 
 -0.3076923E+00  0.2307692E+00  0.0000000E+00  0.1092399E-01
    1        3.149669   1.000000
    2        4.139360   1.000000
    3        4.188449   1.000000
    4        5.023984   1.000000
    5        5.524886   1.000000
    6        7.874604   0.115763
    7       15.332602   0.000000
    8       18.949900   0.000000
    9       27.158129   0.000000
   10       28.733627   0.000000
   11       38.454191   0.000000
   12       38.595099   0.000000
   13       42.460153   0.000000
   14       44.913868   0.000000
   15       48.653315   0.000000
   16       49.040329   0.000000
 
 -0.2307692E+00  0.2307692E+00  0.0000000E+00  0.5461994E-02
    1        2.466381   1.000000
    2        4.034476   1.000000
    3        4.374721   1.000000
    4        5.035522   1.000000
    5        5.277820   1.000000
    6        6.793428   1.000000
    7       18.271180   0.000000
    8       19.283468   0.000000
    9       29.104579   0.000000
   10       29.856502   0.000000
   11       36.842202   0.000000
   12       38.212635   0.000000
   13       39.459686   0.000000
   14       43.484239   0.000000
   15       49.110923   0.000000
   16       51.085262   0.000000
 
  0.3076923E+00  0.3076923E+00  0.0000000E+00  0.2730997E-02
    1        1.986293   1.000000
    2        3.590907   1.000000
    3        5.175502   1.000000
    4        5.489825   1.000000
    5        5.489826   1.000000
    6        5.747426   1.000000
    7       22.676262   0.000000
    8       23.141334   0.000000
    9       23.141357   0.000000
   10       25.954982   0.000000
   11       28.738372   0.000000
   12       46.921354   0.000000
   13       46.921409   0.000000
   14       48.113148   0.000000
   15       48.846256   0.000000
   16       50.451210   0.000000
 
  0.3846154E+00  0.3076923E+00  0.0000000E+00  0.1092399E-01
    1        2.504855   1.000000
    2        3.477027   1.000000
    3        5.188161   1.000000
    4        5.553826   1.000000
    5        5.879706   1.000000
    6        6.278387   1.000000
    7       20.478721   0.000000
    8       20.759781   0.000000
    9       22.472900   0.000000
   10       26.444418   0.000000
   11       29.545288   0.000000
   12       45.872461   0.000000
   13       46.630609   0.000000
   14       50.593134   0.000000
   15       51.103282   0.000000
   16       53.690822   0.000000
 
  0.4615385E+00  0.3076923E+00  0.0000000E+00  0.1092399E-01
    1        2.907572   1.000000
    2        3.462072   1.000000
    3        5.005892   1.000000
    4        5.494988   1.000000
    5        5.993015   1.000000
    6        7.777968   0.463485
    7       17.347169   0.000000
    8       18.939931   0.000000
    9       22.357996   0.000000
   10       26.683215   0.000000
   11       32.233978   0.000000
   12       44.325272   0.000000
   13       45.433557   0.000000
   14       51.261861   0.000000
   15       53.806841   0.000000
   16       55.620394   0.000000
 
 -0.4615385E+00  0.3076923E+00  0.0000000E+00  0.1092399E-01
    1        3.204932   1.000000
    2        3.539628   1.000000
    3        4.788091   1.000000
    4        5.410045   1.000000
    5        5.970165   1.000000
    6        9.770832  -0.000000
    7       14.361357   0.000000
    8       17.589284   0.000000
    9       22.817365   0.000000
   10       26.880584   0.000000
   11       35.683361   0.000000
   12       43.028773   0.000000
   13       44.211205   0.000000
   14       50.577758   0.000000
   15       51.468168   0.000000
   16       52.446764   0.000000
 
 -0.3846154E+00  0.3076923E+00  0.0000000E+00  0.1092399E-01
    1        3.451067   1.000000
    2        3.661735   1.000000
    3        4.528836   1.000000
    4        5.317265   1.000000
    5        5.823761   1.000000
    6       11.421405  -0.000000
    7       12.485881  -0.000000
    8       16.686833   0.000000
    9       23.820610   0.000000
   10       27.252957   0.000000
   11       39.551031   0.000000
   12       41.962706   0.000000
   13       42.825572   0.000000
   14       46.895326   0.000000
   15       48.592485   0.000000
   16       52.762891   0.000000
 
 -0.3076923E+00  0.3076923E+00  0.0000000E+00  0.5461994E-02
    1        3.529057   1.000000
    2        3.863475   1.000000
    3        4.251334   1.000000
    4        5.200941   1.000000
    5        5.637494   1.000000
    6        9.493018  -0.000000
    7       14.593183   0.000000
    8       16.648802   0.000000
    9       25.296944   0.000000
   10       27.867808   0.000000
   11       40.798396   0.000000
   12       40.838959   0.000000
   13       43.661182   0.000000
   14       43.848044   0.000000
   15       46.564737   0.000000
   16       53.675246   0.000000
 
  0.3846154E+00  0.3846154E+00  0.0000000E+00  0.2730997E-02
    1        2.621515   1.000000
    2        3.325408   1.000000
    3        5.836631   1.000000
    4        5.836632   1.000000
    5        5.857136   1.000000
    6        6.602230   1.000000
    7       18.509800   0.000000
    8       21.597305   0.000000
    9       21.597328   0.000000
   10       25.435869   0.000000
   11       28.114548   0.000000
   12       48.943740   0.000000
   13       50.214787   0.000000
   14       50.214843   0.000000
   15       52.501211   0.000000
   16       54.238555   0.000000
 
  0.4615385E+00  0.3846154E+00  0.0000000E+00  0.1092399E-01
    1        2.761573   1.000000
    2        3.271904   1.000000
    3        5.695624   1.000000
    4        5.795830   1.000000
    5        6.006410   1.000000
    6        8.031919  -0.034397
    7       16.789167   0.000000
    8       19.548274   0.000000
    9       21.287203   0.000000
   10       26.005401   0.000000
   11       29.054473   0.000000
   12       47.685174   0.000000
   13       49.583949   0.000000
   14       53.277597   0.000000
   15       54.901519   0.000000
   16       56.174389   0.000000
 
 -0.4615385E+00  0.3846154E+00  0.0000000E+00  0.1092399E-01
    1        2.958049   1.000000
    2        3.328354   1.000000
    3        5.346897   1.000000
    4        5.708891   1.000000
    5        6.012318   1.000000
    6        9.856968  -0.000000
    7       15.560518   0.000000
    8       16.704505   0.000000
    9       21.580295   0.000000
   10       26.421160   0.000000
   11       31.871128   0.000000
   12       46.120859   0.000000
   13       47.972120   0.000000
   14       51.892767   0.000000
   15       52.923241   0.000000
   16       56.760784   0.000000
 
 -0.3846154E+00  0.3846154E+00  0.0000000E+00  0.5461994E-02
    1        3.213117   1.000000
    2        3.472038   1.000000
    3        4.919663   1.000000
    4        5.560234   1.000000
    5        5.915750   1.000000
    6       11.576198  -0.000000
    7       13.921766   0.000000
    8       15.325541   0.000000
    9       22.450632   0.000000
   10       26.764159   0.000000
   11       35.512599   0.000000
   12       44.369035   0.000000
   13       45.758860   0.000000
   14       48.856024   0.000000
   15       50.121003   0.000000
   16       57.117396   0.000000
 
  0.4615385E+00  0.4615385E+00  0.0000000E+00  0.2730997E-02
    1        2.703497   1.000000
    2        3.178071   1.000000
    3        5.919599   1.000000
    4        6.053624   1.000000
    5        6.053624   1.000000
    6        8.635253  -0.000000
    7       15.287704   0.000000
    8       20.772883   0.000000
    9       20.772906   0.000000
   10       25.187385   0.000000
   11       27.871167   0.000000
   12       49.580454   0.000000
   13       53.662896   0.000000
   14       53.827437   0.000000
   15       53.827494   0.000000
   16       57.758561   0.000000
 
 -0.4615385E+00  0.4615385E+00  0.0000000E+00  0.5461994E-02
    1        2.770756   1.000000
    2        3.198780   1.000000
    3        5.858976   1.000000
    4        5.878538   1.000000
    5        6.064346   1.000000
    6        9.455532  -0.000000
    7       14.750644   0.000000
    8       19.177245   0.000000
    9       20.874041   0.000000
   10       25.865764   0.000000
   11       28.909405   0.000000
   12       48.549371   0.000000
   13       51.483488   0.000000
   14       54.065590   0.000000
   15       54.499292   0.000000
   16       57.289805   0.000000
 
  0.2307692E+00  0.1538462E+00  0.7692308E-01  0.1092399E-01
    1       -0.374431   1.000000
    2        4.232960   1.000000
    3        4.759932   1.000000
    4        4.825650   1.000000
    5        5.162097   1.000000
    6        5.520954   1.000000
    7       25.039418   0.000000
    8       25.734861   0.000000
    9       31.045421   0.000000
   10       31.748456   0.000000
   11       34.352435   0.000000
   12       37.876788   0.000000
   13       38.102535   0.000000
   14       42.903960   0.000000
   15       42.942514   0.000000
   16       46.214906   0.000000
 
  0.3076923E+00  0.1538462E+00  0.7692308E-01  0.2184797E-01
    1        0.580626   1.000000
    2        4.113983   1.000000
    3        4.689606   1.000000
    4        4.910843   1.000000
    5        5.236504   1.000000