    2    2    1    1
  0.3538312E+02  0.4745822E-09  0.4745822E-09  0.4745822E-09  0.5000000E-15
  1.000000000000000E-004
  CAR 
 Bi SCF                                  
     10    891     16
 
  0.0000000E+00  0.0000000E+00  0.0000000E+00  0.1079797E-03
    1       -7.775955   1.000000
    2       -7.775955   1.000000
    3       -2.127983   1.000000
    4       -2.127983   1.000000
    5        2.499142   1.000000
    6        2.499142   1.000000
    7        4.478722   1.000013
    8        4.478722   1.000013
    9        4.687412   1.002853
   10        4.687412   1.002853
   11        6.417513  -0.000000
   12        6.417513  -0.000000
   13        8.495640  -0.000000
   14        8.495640  -0.000000
   15        8.855443  -0.000000
   16        8.855443  -0.000000
 
  0.4761905E-01  0.6938894E-17  0.3469447E-17  0.6478782E-03
    1       -7.754784   1.000000
    2       -7.754784   1.000000
    3       -2.180313   1.000000
    4       -2.180313   1.000000
    5        2.511815   1.000000
    6        2.511815   1.000000
    7        4.480836   1.000014
    8        4.480836   1.000014
    9        4.671057   1.002047
   10        4.671057   1.002047
   11        6.388596  -0.000000
   12        6.388596  -0.000000
   13        8.441259  -0.000000
   14        8.441259  -0.000000
   15        8.746212  -0.000000
   16        8.746212  -0.000000
 
  0.9523810E-01  0.1387779E-16  0.6938894E-17  0.6478782E-03
    1       -7.691375   1.000000
    2       -7.691375   1.000000
    3       -2.332540   1.000000
    4       -2.332540   1.000000
    5        2.547953   1.000000
    6        2.547953   1.000000
    7        4.479529   1.000013
    8        4.479529   1.000013
    9        4.632808   1.000885
   10        4.632808   1.000885
   11        6.301007  -0.000000
   12        6.301007  -0.000000
   13        8.254565  -0.000000
   14        8.254565  -0.000000
   15        8.508739  -0.000000
   16        8.508739  -0.000000
 
  0.1428571E+00  0.2081668E-16  0.6938894E-17  0.6478782E-03
    1       -7.586182   1.000000
    2       -7.586182   1.000000
    3       -2.571881   1.000000
    4       -2.571881   1.000000
    5        2.603181   1.000000
    6        2.603181   1.000000
    7        4.444372   1.000004
    8        4.444372   1.000004
    9        4.610896   1.000527
   10        4.610896   1.000527
   11        6.158007  -0.000000
   12        6.158007  -0.000000
   13        7.931228  -0.000000
   14        7.931228  -0.000000
   15        8.249170  -0.000000
   16        8.249170  -0.000000
 
  0.1904762E+00  0.0000000E+00 -0.1387779E-16  0.6478782E-03
    1       -7.440028   1.000000
    2       -7.440028   1.000000
    3       -2.880957   1.000000
    4       -2.880957   1.000000
    5        2.673097   1.000000
    6        2.673097   1.000000
    7        4.359543   1.000000
    8        4.359543   1.000000
    9        4.629739   1.000825
   10        4.629739   1.000825
   11        5.974735  -0.000000
   12        5.974735  -0.000000
   13        7.554658  -0.000000
   14        7.554658  -0.000000
   15        7.955838  -0.000000
   16        7.955838  -0.000000
 
  0.2380952E+00  0.1387779E-16 -0.1387779E-16  0.6478782E-03
    1       -7.254112   1.000000
    2       -7.254112   1.000000
    3       -3.241157   1.000000
    4       -3.241157   1.000000
    5        2.755023   1.000000
    6        2.755023   1.000000
    7        4.247889   1.000000
    8        4.247890   1.000000
    9        4.672562   1.002112
   10        4.672562   1.002112
   11        5.776580  -0.000037
   12        5.776580  -0.000037
   13        7.180230  -0.000000
   14        7.180230  -0.000000
   15        7.633262  -0.000000
   16        7.633262  -0.000000
 
  0.2857143E+00  0.2775558E-16 -0.1387779E-16  0.6478782E-03
    1       -7.030347   1.000000
    2       -7.030347   1.000000
    3       -3.634590   1.000000
    4       -3.634590   1.000000
    5        2.848348   1.000000
    6        2.848348   1.000000
    7        4.121093   1.000000
    8        4.121093   1.000000
    9        4.730072   1.006274
   10        4.730072   1.006274
   11        5.590778  -0.003540
   12        5.590778  -0.003540
   13        6.832168  -0.000000
   14        6.832168  -0.000000
   15        7.308032  -0.000000
   16        7.308032  -0.000000
 
  0.3333333E+00  0.1387779E-16 -0.1387779E-16  0.6478782E-03
    1       -6.771747   1.000000
    2       -6.771747   1.000000
    3       -4.044730   1.000000
    4       -4.044730   1.000000
    5        2.953868   1.000000
    6        2.953868   1.000000
    7        3.981245   1.000000
    8        3.981245   1.000000
    9        4.799827   1.017511
   10        4.799827   1.017511
   11        5.437891  -0.029127
   12        5.437892  -0.029127
   13        6.525695  -0.000000
   14        6.525695  -0.000000
   15        7.004741  -0.000000
   16        7.004741  -0.000000
 
  0.3809524E+00  0.0000000E+00 -0.2775558E-16  0.6478782E-03
    1       -6.483791   1.000000
    2       -6.483791   1.000000
    3       -4.455427   1.000000
    4       -4.455427   1.000000
    5        3.072707   1.000000
    6        3.072707   1.000000
    7        3.829340   1.000000
    8        3.829340   1.000000
    9        4.880180   1.034178
   10        4.880180   1.034178
   11        5.325032  -0.011734
   12        5.325032  -0.011734
   13        6.275026  -0.000000
   14        6.275026  -0.000000
   15        6.743972  -0.000000
   16        6.743972  -0.000000
 
  0.4285714E+00  0.0000000E+00 -0.2775558E-16  0.6478782E-03
    1       -6.180000   1.000000
    2       -6.180000   1.000000
    3       -4.845308   1.000000
    4       -4.845308   1.000000
    5        3.205393   1.000000
    6        3.205393   1.000000
    7        3.669351   1.000000
    8        3.669351   1.000000
    9        4.967395   1.008938
   10        4.967396   1.008938
   11        5.242422   0.136054
   12        5.242422   0.136054
   13        6.096276  -0.000000
   14        6.096276  -0.000000
   15        6.546674  -0.000000
   16        6.546674  -0.000000
 
  0.4761905E+00  0.2775558E-16 -0.2775558E-16  0.6478782E-03
    1       -5.915585   1.000000
    2       -5.915585   1.000000
    3       -5.154030   1.000000
    4       -5.154030   1.000000
    5        3.350912   1.000000
    6        3.350912   1.000000
    7        3.508164   1.000000
    8        3.508164   1.000000
    9        5.048807   0.858443
   10        5.048807   0.858443
   11        5.174761   0.374138
   12        5.174761   0.374138
   13        6.004076  -0.000000
   14        6.004076  -0.000000
   15        6.437393  -0.000000
   16        6.437393  -0.000000
 
  0.4761905E-01  0.4761905E-01  0.0000000E+00  0.6478782E-03
    1       -7.749103   1.000000
    2       -7.749103   1.000000
    3       -2.196470   1.000000
    4       -2.196470   1.000000
    5        2.514124   1.000000
    6        2.514124   1.000000
    7        4.464524   1.000008
    8        4.464524   1.000008
    9        4.694217   1.003259
   10        4.694217   1.003259
   11        6.371400  -0.000000
   12        6.371400  -0.000000
   13        8.380922  -0.000000
   14        8.380922  -0.000000
   15        8.777548  -0.000000
   16        8.777548  -0.000000
 
  0.9523810E-01  0.4761905E-01  0.0000000E+00  0.1295756E-02
    1       -7.701208   1.000000
    2       -7.701208   1.000000
    3       -2.311555   1.000000
    4       -2.311555   1.000000
    5        2.532637   1.000000
    6        2.532637   1.000000
    7        4.417418   1.000002
    8        4.417418   1.000002
    9        4.726993   1.005950
   10        4.726993   1.005950
   11        6.286105  -0.000000
   12        6.286105  -0.000000
   13        8.185373  -0.000000
   14        8.185373  -0.000000
   15        8.686570  -0.000000
   16        8.686570  -0.000000
 
  0.1428571E+00  0.4761905E-01  0.0000000E+00  0.1295756E-02
    1       -7.611435   1.000000
    2       -7.611435   1.000000
    3       -2.515868   1.000000
    4       -2.515868   1.000000
    5        2.564648   1.000000
    6        2.564648   1.000000
    7        4.341406   1.000000
    8        4.341406   1.000000
    9        4.769332   1.011667
   10        4.769332   1.011667
   11        6.141095  -0.000000
   12        6.141095  -0.000000
   13        7.910147  -0.000000
   14        7.910147  -0.000000
   15        8.501348  -0.000000
   16        8.501348  -0.000000
 
  0.1904762E+00  0.4761905E-01  0.0000000E+00  0.1295756E-02
    1       -7.480452   1.000000
    2       -7.480452   1.000000
    3       -2.794497   1.000000
    4       -2.794497   1.000000
    5        2.607905   1.000000
    6        2.607905   1.000000
    7        4.246101   1.000000
    8        4.246101   1.000000
    9        4.811164   1.019990
   10        4.811164   1.019990
   11        5.959911  -0.000000
   12        5.959911  -0.000000
   13        7.589041  -0.000000
   14        7.589041  -0.000000
   15        8.254185  -0.000000
   16        8.254185  -0.000000
 
  0.2380952E+00  0.4761905E-01  0.0000000E+00  0.1295756E-02
    1       -7.309307   1.000000
    2       -7.309307   1.000000
    3       -3.130257   1.000000
    4       -3.130257   1.000000
    5        2.661954   1.000000
    6        2.661954   1.000000
    7        4.139795   1.000000
    8        4.139795   1.000000
    9        4.838055   1.026162
   10        4.838055   1.026162
   11        5.780059  -0.000034
   12        5.780059  -0.000034
   13        7.251669  -0.000000
   14        7.251669  -0.000000
   15        7.960011  -0.000000
   16        7.960012  -0.000000
 
  0.2857143E+00  0.4761905E-01  0.0000000E+00  0.1295756E-02
    1       -7.099662   1.000000
    2       -7.099662   1.000000
    3       -3.505835   1.000000
    4       -3.505835   1.000000
    5        2.728111   1.000000
    6        2.728111   1.000000
    7        4.025558   1.000000
    8        4.025558   1.000000
    9        4.836142   1.025724
   10        4.836142   1.025724
   11        5.641690  -0.001237
   12        5.641690  -0.001237
   13        6.923868  -0.000000
   14        6.923868  -0.000000
   15        7.643312  -0.000000
   16        7.643312  -0.000000
 
  0.3333333E+00  0.4761905E-01 -0.2775558E-16  0.1295756E-02
    1       -6.854008   1.000000
    2       -6.854008   1.000000
    3       -3.904853   1.000000
    4       -3.904853   1.000000
    5        2.808421   1.000000
    6        2.808421   1.000000
    7        3.901701   1.000000
    8        3.901701   1.000000
    9        4.805403   1.018714
   10        4.805403   1.018714
   11        5.566155  -0.005561
   12        5.566155  -0.005561
   13        6.627114  -0.000000
   14        6.627114  -0.000000
   15        7.333204  -0.000000
   16        7.333204  -0.000000
 
  0.3809524E+00  0.4761905E-01 -0.2775558E-16  0.1295756E-02
    1       -6.576642   1.000000
    2       -6.576642   1.000000
    3       -4.311565   1.000000
    4       -4.311565   1.000000
    5        2.904206   1.000000
    6        2.904206   1.000000
    7        3.766654   1.000000
    8        3.766654   1.000000
    9        4.768460   1.011521
   10        4.768460   1.011521
   11        5.538695  -0.008790
   12        5.538695  -0.008790
   13        6.380181  -0.000000
   14        6.380181  -0.000000
   15        7.056322  -0.000000
   16        7.056322  -0.000000
 
  0.4285714E+00  0.4761905E-01  0.0000000E+00  0.1295756E-02
    1       -6.276782   1.000000
    2       -6.276782   1.000000
    3       -4.707969   1.000000
    4       -4.707969   1.000000
    5        3.013696   1.000000
    6        3.013696   1.000000
    7        3.626119   1.000000
    8        3.626119   1.000000
    9        4.748433   1.008496
   10        4.748433   1.008496
   11        5.525383  -0.010775
   12        5.525383  -0.010775
   13        6.196620  -0.000000
   14        6.196620  -0.000000
   15        6.841485  -0.000000
   16        6.841485  -0.000000
 
  0.4761905E+00  0.4761905E-01  0.2775558E-16  0.1295756E-02
    1       -5.984964   1.000000
    2       -5.984964   1.000000
    3       -5.057390   1.000000
    4       -5.057390   1.000000
    5        3.123174   1.000000
    6        3.123174   1.000000
    7        3.501740   1.000000
    8        3.501740   1.000000
    9        4.747315   1.008346
   10        4.747315   1.008346
   11        5.508166  -0.013763
   12        5.508166  -0.013763
   13        6.070394  -0.000000
   14        6.070394  -0.000000
   15        6.724880  -0.000000
   16        6.724880  -0.000000
 
 -0.4761905E+00  0.4761905E-01  0.8326673E-16  0.1295756E-02
    1       -5.855287   1.000000
    2       -5.855287   1.000000
    3       -5.202185   1.000000
    4       -5.202185   1.000000
    5        3.167362   1.000000
    6        3.167362   1.000000
    7        3.465926   1.000000
    8        3.465926   1.000000
    9        4.749335   1.008618
   10        4.749335   1.008618
   11        5.501898  -0.014964
   12        5.501898  -0.014964
   13        5.982033  -0.000000
   14        5.982033  -0.000000
   15        6.731397  -0.000000
   16        6.731397  -0.000000
 
 -0.4285714E+00  0.4761905E-01  0.8326673E-16  0.1295756E-02
    1       -6.059190   1.000000
    2       -6.059190   1.000000
    3       -4.969952   1.000000
    4       -4.969952   1.000000
    5        3.094637   1.000000
    6        3.094637   1.000000
    7        3.572583   1.000000
    8        3.572583   1.000000
    9        4.739197   1.007314
   10        4.739197   1.007314
   11        5.516448  -0.012267
   12        5.516448  -0.012267
   13        5.952370  -0.000000
   14        5.952370  -0.000000
   15        6.846228  -0.000000
   16        6.846228  -0.000000
 
 -0.3809524E+00  0.4761905E-01  0.4163336E-16  0.1295756E-02
    1       -6.359287   1.000000
    2       -6.359287   1.000000
    3       -4.599662   1.000000
    4       -4.599662   1.000000
    5        2.990503   1.000000
    6        2.990503   1.000000
    7        3.732265   1.000000
    8        3.732265   1.000000
    9        4.717315   1.005016
   10        4.717315   1.005016
   11        5.528532  -0.010280
   12        5.528533  -0.010280
   13        6.035375  -0.000000
   14        6.035376  -0.000000
   15        7.036702  -0.000000
   16        7.036702  -0.000000
 
 -0.3333333E+00  0.4761905E-01  0.1387779E-16  0.1295756E-02
    1       -6.654357   1.000000
    2       -6.654357   1.000000
    3       -4.196713   1.000000
    4       -4.196713   1.000000
    5        2.891048   1.000000
    6        2.891048   1.000000
    7        3.899543   1.000000
    8        3.899543   1.000000
    9        4.692233   1.003136
   10        4.692233   1.003136
   11        5.546160  -0.007800
   12        5.546160  -0.007800
   13        6.234657  -0.000000
   14        6.234657  -0.000000
   15        7.277611  -0.000000
   16        7.277611  -0.000000
 
 -0.2857143E+00  0.4761905E-01  0.2775558E-16  0.1295756E-02
    1       -6.923601   1.000000
    2       -6.923601   1.000000
    3       -3.788796   1.000000
    4       -3.788796   1.000000
    5        2.802771   1.000000
    6        2.802772   1.000000
    7        4.056324   1.000000
    8        4.056324   1.000000
    9        4.668092   1.001924
   10        4.668092   1.001924
   11        5.605732  -0.002641
   12        5.605732  -0.002641
   13        6.514699  -0.000000
   14        6.514699  -0.000000
   15        7.550579  -0.000000
   16        7.550579  -0.000000
 
 -0.2380952E+00  0.4761905E-01  0.2775558E-16  0.1295756E-02
    1       -7.159794   1.000000
    2       -7.159794   1.000000
    3       -3.392838   1.000000
    4       -3.392838   1.000000
    5        2.726002   1.000000
    6        2.726002   1.000000
    7        4.193203   1.000000
    8        4.193203   1.000000
    9        4.645257   1.001174
   10        4.645257   1.001174
   11        5.722590  -0.000171
   12        5.722590  -0.000171
   13        6.848425  -0.000000
   14        6.848425  -0.000000
   15        7.837752  -0.000000
   16        7.837752  -0.000000
 
 -0.1904762E+00  0.4761905E-01  0.2081668E-16  0.1295756E-02
    1       -7.359218   1.000000
    2       -7.359218   1.000000
    3       -3.025030   1.000000
    4       -3.025030   1.000000
    5        2.659750   1.000000
    6        2.659750   1.000000
    7        4.306589   1.000000
    8        4.306589   1.000000
    9        4.626240   1.000760
   10        4.626240   1.000760
   11        5.885023  -0.000001
   12        5.885023  -0.000001
   13        7.216648  -0.000000
   14        7.216648  -0.000000
   15        8.117028  -0.000000
   16        8.117028  -0.000000
 
 -0.1428571E+00  0.4761905E-01  0.1387779E-16  0.1295756E-02
    1       -7.519662   1.000000
    2       -7.519662   1.000000
    3       -2.702575   1.000000
    4       -2.702575   1.000000
    5        2.603579   1.000000
    6        2.603579   1.000000
    7        4.393412   1.000001
    8        4.393412   1.000001
    9        4.617744   1.000622
   10        4.617744   1.000622
   11        6.063671  -0.000000
   12        6.063671  -0.000000
   13        7.600308  -0.000000
   14        7.600308  -0.000000
   15        8.360959  -0.000000
   16        8.360959  -0.000000
 
 -0.9523810E-01  0.4761905E-01 -0.3469447E-17  0.1295756E-02
    1       -7.639645   1.000000
    2       -7.639645   1.000000
    3       -2.443474   1.000000
    4       -2.443474   1.000000
    5        2.558503   1.000000
    6        2.558503   1.000000
    7        4.448611   1.000005
    8        4.448611   1.000005
    9        4.626687   1.000768
   10        4.626687   1.000768
   11        6.224004  -0.000000
   12        6.224004  -0.000000
   13        7.973341  -0.000000
   14        7.973341  -0.000000
   15        8.544685  -0.000000
   16        8.544685  -0.000000
 
 -0.4761905E-01  0.4761905E-01 -0.1243957E-17  0.6478782E-03
    1       -7.718201   1.000000
    2       -7.718201   1.000000
    3       -2.264896   1.000000
    4       -2.264896   1.000000
    5        2.526995   1.000000
    6        2.526995   1.000000
    7        4.474722   1.000012
    8        4.474722   1.000012
    9        4.648638   1.001266
   10        4.648638   1.001266
   11        6.337615  -0.000000
   12        6.337615  -0.000000
   13        8.287469  -0.000000
   14        8.287469  -0.000000
   15        8.662764  -0.000000
   16        8.662764  -0.000000
 
  0.9523810E-01  0.9523810E-01  0.0000000E+00  0.6478782E-03
    1       -7.669084   1.000000
    2       -7.669084   1.000000
    3       -2.381880   1.000000
    4       -2.381880   1.000000
    5        2.517464   1.000000
    6        2.517464   1.000000
    7        4.317242   1.000000
    8        4.317242   1.000000
    9        4.843391   1.027372
   10        4.843391   1.027372
   11        6.180643  -0.000000
   12        6.180643  -0.000000
   13        8.012205  -0.000000
   14        8.012205  -0.000000
   15        8.804548  -0.000000
   16        8.804548  -0.000000
 
  0.1428571E+00  0.9523810E-01  0.0000000E+00  0.1295756E-02
    1       -7.595218   1.000000
    2       -7.595218   1.000000
    3       -2.538544   1.000000
    4       -2.538544   1.000000
    5        2.506956   1.000000
    6        2.506956   1.000000
    7        4.201012   1.000000
    8        4.201012   1.000000
    9        4.934102   1.029767
   10        4.934102   1.029767
   11        6.027769  -0.000000
   12        6.027770  -0.000000
   13        7.832686  -0.000000
   14        7.832686  -0.000000
   15        8.767450  -0.000000
   16        8.767450  -0.000000
 
  0.1904762E+00  0.9523810E-01 -0.2775558E-16  0.1295756E-02
    1       -7.480214   1.000000
    2       -7.480214   1.000000
    3       -2.771302   1.000000
    4       -2.771302   1.000000
    5        2.505006   1.000000
    6        2.505006   1.000000
    7        4.075675   1.000000
    8        4.075675   1.000000
    9        4.946901   1.023914
   10        4.946901   1.023914
   11        5.906955  -0.000000
   12        5.906955  -0.000000
   13        7.638850  -0.000000
   14        7.638851  -0.000000
   15        8.619355  -0.000000
   16        8.619355  -0.000000
 
  0.2380952E+00  0.9523810E-01 -0.4163336E-16  0.1295756E-02
    1       -7.324976   1.000000
    2       -7.324976   1.000000
    3       -3.066459   1.000000
    4       -3.066459   1.000000
    5        2.515273   1.000000
    6        2.515273   1.000000
    7        3.944251   1.000000
    8        3.944251   1.000000
    9        4.849420   1.028703
   10        4.849420   1.028703
   11        5.882593  -0.000001
   12        5.882593  -0.000001
   13        7.410530  -0.000000
   14        7.410530  -0.000000
   15        8.403000  -0.000000
   16        8.403001  -0.000000
 
  0.2857143E+00  0.9523810E-01  0.0000000E+00  0.1295756E-02
    1       -7.130999   1.000000
    2       -7.130999   1.000000
    3       -3.408786   1.000000
    4       -3.408786   1.000000
    5        2.541078   1.000000
    6        2.541078   1.000000
    7        3.806026   1.000000
    8        3.806026   1.000000
    9        4.687804   1.002875
   10        4.687804   1.002875
   11        5.935333  -0.000000
   12        5.935333  -0.000000
   13        7.153024  -0.000000
   14        7.153024  -0.000000
   15        8.137020  -0.000000
   16        8.137021  -0.000000
 
  0.3333333E+00  0.9523810E-01  0.0000000E+00  0.1295756E-02
    1       -6.900427   1.000000
    2       -6.900427   1.000000
    3       -3.782798   1.000000
    4       -3.782798   1.000000
    5        2.584637   1.000000
    6        2.584637   1.000000
    7        3.658156   1.000000
    8        3.658157   1.000000
    9        4.534201   1.000070
   10        4.534201   1.000070
   11        6.007930  -0.000000
   12        6.007930  -0.000000
   13        6.897050  -0.000000
   14        6.897050  -0.000000
   15        7.849660  -0.000000
   16        7.849660  -0.000000
 
  0.3809524E+00  0.9523810E-01  0.0000000E+00  0.1295756E-02
    1       -6.636759   1.000000
    2       -6.636759   1.000000
    3       -4.173232   1.000000
    4       -4.173232   1.000000
    5        2.645391   1.000000
    6        2.645391   1.000000
    7        3.503381   1.000000
    8        3.503381   1.000000
    9        4.430527   1.000003
   10        4.430527   1.000003
   11        6.045222  -0.000000
   12        6.045222  -0.000000
   13        6.687683  -0.000000
   14        6.687683  -0.000000
   15        7.577332  -0.000000
   16        7.577332  -0.000000
 
  0.4285714E+00  0.9523810E-01  0.0000000E+00  0.1295756E-02
    1       -6.346562   1.000000
    2       -6.346562   1.000000
    3       -4.563959   1.000000
    4       -4.563959   1.000000
    5        2.715587   1.000000
    6        2.715587   1.000000
    7        3.359784   1.000000
    8        3.359784   1.000000
    9        4.387513   1.000001
   10        4.387513   1.000001
   11        5.994237  -0.000000
   12        5.994237  -0.000000
   13        6.564830  -0.000000
   14        6.564830  -0.000000
   15        7.362103  -0.000000
   16        7.362103  -0.000000
 
  0.4761905E+00  0.9523810E-01  0.0000000E+00  0.1295756E-02
    1       -6.047426   1.000000
    2       -6.047426   1.000000
    3       -4.930219   1.000000
    4       -4.930219   1.000000
    5        2.768862   1.000000
    6        2.768862   1.000000
    7        3.268177   1.000000
    8        3.268177   1.000000
    9        4.397220   1.000001
   10        4.397220   1.000001
   11        5.872229  -0.000002
   12        5.872229  -0.000002
   13        6.481413  -0.000000
   14        6.481413  -0.000000
   15        7.258601  -0.000000
   16        7.258601  -0.000000
 
 -0.4761905E+00  0.9523810E-01  0.5551115E-16  0.1295756E-02
    1       -5.823034   1.000000
    2       -5.823034   1.000000
    3       -5.183792   1.000000
    4       -5.183792   1.000000
    5        2.761197   1.000000
    6        2.761197   1.000000
    7        3.283744   1.000000
    8        3.283744   1.000000
    9        4.442885   1.000004
   10        4.442885   1.000004
   11        5.751979  -0.000076
   12        5.751979  -0.000076
   13        6.360694  -0.000000
   14        6.360694  -0.000000
   15        7.293604  -0.000000
   16        7.293604  -0.000000
 
 -0.4285714E+00  0.9523810E-01  0.4163336E-16  0.1295756E-02
    1       -5.920355   1.000000
    2       -5.920355   1.000000
    3       -5.075779   1.000000
    4       -5.075779   1.000000
    5        2.701116   1.000000
    6        2.701116   1.000000
    7        3.402830   1.000000
    8        3.402830   1.000000
    9        4.501690   1.000027
   10        4.501690   1.000027
   11        5.683680  -0.000463
   12        5.683680  -0.000463
   13        6.215368  -0.000000
   14        6.215368  -0.000000
   15        7.428377  -0.000000
   16        7.428377  -0.000000
 
 -0.3809524E+00  0.9523810E-01  0.1387779E-16  0.1295756E-02
    1       -6.205070   1.000000
    2       -6.205070   1.000000
    3       -4.741120   1.000000
    4       -4.741120   1.000000
    5        2.634357   1.000000
    6        2.634357   1.000000
    7        3.577802   1.000000
    8        3.577802   1.000000
    9        4.548759   1.000105
   10        4.548759   1.000105
   11        5.692217  -0.000375
   12        5.692217  -0.000375
   13        6.088378  -0.000000
   14        6.088378  -0.000000
   15        7.618271  -0.000000
   16        7.618271  -0.000000
 
 -0.3333333E+00  0.9523810E-01  0.1387779E-16  0.1295756E-02
    1       -6.503169   1.000000
    2       -6.503169   1.000000
    3       -4.357162   1.000000
    4       -4.357162   1.000000
    5        2.583296   1.000000
    6        2.583296   1.000000
    7        3.776693   1.000000
    8        3.776693   1.000000
    9        4.571340   1.000193
   10        4.571340   1.000193
   11        5.750555  -0.000079
   12        5.750555  -0.000079
   13        6.042137  -0.000000
   14        6.042137  -0.000000
   15        7.836670  -0.000000
   16        7.836670  -0.000000
 
 -0.2857143E+00  0.9523810E-01  0.2775558E-16  0.1295756E-02
    1       -6.780496   1.000000
    2       -6.780496   1.000000
    3       -3.963954   1.000000
    4       -3.963954   1.000000
    5        2.553554   1.000000
    6        2.553554   1.000000
    7        3.974158   1.000000
    8        3.974158   1.000000
    9        4.578982   1.000236
   10        4.578982   1.000236
   11        5.762433  -0.000056
   12        5.762433  -0.000056
   13        6.178076  -0.000000
   14        6.178076  -0.000000
   15        8.063585  -0.000000
   16        8.063585  -0.000000
 
 -0.2380952E+00  0.9523810E-01  0.1387779E-16  0.1295756E-02
    1       -7.027188   1.000000
    2       -7.027188   1.000000
    3       -3.579835   1.000000
    4       -3.579835   1.000000
    5        2.543300   1.000000
    6        2.543300   1.000000
    7        4.140688   1.000000
    8        4.140688   1.000000
    9        4.592655   1.000336
   10        4.592655   1.000336
   11        5.764575  -0.000053
   12        5.764575  -0.000053
   13        6.453144  -0.000000
   14        6.453145  -0.000000
   15        8.276968  -0.000000
   16        8.276968  -0.000000
 
 -0.1904762E+00  0.9523810E-01  0.1387779E-16  0.1295756E-02
    1       -7.238716   1.000000
    2       -7.238716   1.000000
    3       -3.220262   1.000000
    4       -3.220262   1.000000
    5        2.546563   1.000000
    6        2.546563   1.000000
    7        4.252856   1.000000
    8        4.252856   1.000000
    9        4.622720   1.000700
   10        4.622720   1.000700
   11        5.818812  -0.000010
   12        5.818812  -0.000010
   13        6.798006  -0.000000
   14        6.798006  -0.000000
   15        8.449808  -0.000000
   16        8.449808  -0.000000
 
 -0.1428571E+00  0.9523810E-01  0.6938894E-17  0.1295756E-02
    1       -7.412370   1.000000
    2       -7.412370   1.000000
    3       -2.900731   1.000000
    4       -2.900731   1.000000
    5        2.555107   1.000000
    6        2.555107   1.000000
    7        4.322164   1.000000
    8        4.322164   1.000000
    9        4.649990   1.001304
   10        4.649990   1.001304
   11        5.934892  -0.000000
   12        5.934892  -0.000000
   13        7.182359  -0.000000
   14        7.182359  -0.000000
   15        8.555808  -0.000000
   16        8.555808  -0.000000
 
 -0.9523810E-01  0.9523810E-01 -0.2487914E-17  0.6478782E-03
    1       -7.546391   1.000000
    2       -7.546391   1.000000
    3       -2.636896   1.000000
    4       -2.636896   1.000000
    5        2.560782   1.000000
    6        2.560782   1.000000
    7        4.382000   1.000000
    8        4.382000   1.000000
    9        4.650615   1.001322
   10        4.650615   1.001322
   11        6.085957  -0.000000
   12        6.085957  -0.000000
   13        7.583742  -0.000000
   14        7.583742  -0.000000
   15        8.584106  -0.000000
   16        8.584106  -0.000000
 
  0.1428571E+00  0.1428571E+00  0.1387779E-16  0.6478782E-03
    1       -7.537709   1.000000
    2       -7.537709   1.000000
    3       -2.639847   1.000000
    4       -2.639847   1.000000
    5        2.446532   1.000000
    6        2.446532   1.000000
    7        4.051801   1.000000
    8        4.051801   1.000000
    9        4.973111   1.003361
   10        4.973111   1.003361
   11        5.959652  -0.000000
   12        5.959652  -0.000000
   13        7.769154  -0.000000
   14        7.769154  -0.000000
   15        8.880975  -0.000000
   16        8.880975  -0.000000
 
  0.1904762E+00  0.1428571E+00 -0.2775558E-16  0.1295756E-02
    1       -7.439396   1.000000
    2       -7.439396   1.000000
    3       -2.815241   1.000000
    4       -2.815241   1.000000
    5        2.394652   1.000000